# vtk DataFile Version 4.0
vtk output
ASCII
DATASET UNSTRUCTURED_GRID
POINTS 1079 float
0.0000000e+00 1.0000000e-02 0.0000000e+00 
1.0000000e-03 1.0000000e-02 0.0000000e+00 
0.0000000e+00 9.0000000e-03 0.0000000e+00 
1.0833333e-03 8.9090804e-03 0.0000000e+00 
2.0000000e-03 1.0000000e-02 0.0000000e+00 
0.0000000e+00 8.0000000e-03 0.0000000e+00 
2.0000000e-03 8.6602540e-03 0.0000000e+00 
1.4305556e-03 7.8699949e-03 0.0000000e+00 
3.0000000e-03 1.0000000e-02 0.0000000e+00 
0.0000000e+00 7.0000000e-03 0.0000000e+00 
1.0000000e-03 6.9282032e-03 0.0000000e+00 
3.0000000e-03 8.6602540e-03 0.0000000e+00 
2.5000000e-03 7.7942286e-03 0.0000000e+00 
2.0000000e-03 6.9282032e-03 0.0000000e+00 
4.0000000e-03 1.0000000e-02 0.0000000e+00 
0.0000000e+00 6.0000000e-03 0.0000000e+00 
3.5000000e-03 7.7942286e-03 0.0000000e+00 
1.5000000e-03 6.0621778e-03 0.0000000e+00 
4.0000000e-03 8.6602540e-03 0.0000000e+00 
3.0000000e-03 6.9282032e-03 0.0000000e+00 
2.5000000e-03 6.0621778e-03 0.0000000e+00 
5.0000000e-03 1.0000000e-02 0.0000000e+00 
0.0000000e+00 5.0000000e-03 0.0000000e+00 
4.5000000e-03 7.7942286e-03 0.0000000e+00 
4.0000000e-03 6.9282032e-03 0.0000000e+00 
1.0000000e-03 5.0000000e-03 0.0000000e+00 
5.0000000e-03 8.6602540e-03 0.0000000e+00 
3.5000000e-03 6.0621778e-03 0.0000000e+00 
2.0000000e-03 5.0000000e-03 0.0000000e+00 
3.0000000e-03 5.0000000e-03 0.0000000e+00 
5.0000000e-03 6.9282032e-03 0.0000000e+00 
5.5000000e-03 7.7942286e-03 0.0000000e+00 
4.5000000e-03 6.0621778e-03 0.0000000e+00 
6.0000000e-03 1.0000000e-02 0.0000000e+00 
6.0000000e-03 8.6602540e-03 0.0000000e+00 
4.0000000e-03 5.0000000e-03 0.0000000e+00 
6.0000000e-03 6.9282032e-03 0.0000000e+00 
5.5000000e-03 6.0621778e-03 0.0000000e+00 
6.5000000e-03 7.7942286e-03 0.0000000e+00 
7.0000000e-03 1.0000000e-02 0.0000000e+00 
5.0000000e-03 5.0000000e-03 0.0000000e+00 
7.0000000e-03 8.6602540e-03 0.0000000e+00 
6.5000000e-03 6.0621778e-03 0.0000000e+00 
7.0000000e-03 6.9282032e-03 0.0000000e+00 
6.0000000e-03 5.0000000e-03 0.0000000e+00 
7.5000000e-03 7.7942286e-03 0.0000000e+00 
8.0000000e-03 1.0000000e-02 0.0000000e+00 
8.0000000e-03 8.6602540e-03 0.0000000e+00 
7.5000000e-03 6.0621778e-03 0.0000000e+00 
8.0000000e-03 6.9282032e-03 0.0000000e+00 
7.0000000e-03 5.0000000e-03 0.0000000e+00 
8.5000000e-03 7.7942286e-03 0.0000000e+00 
9.0000000e-03 1.0000000e-02 0.0000000e+00 
9.0000000e-03 8.6602540e-03 0.0000000e+00 
8.5000000e-03 6.0621778e-03 0.0000000e+00 
8.0000000e-03 5.0000000e-03 0.0000000e+00 
9.0000000e-03 6.9282032e-03 0.0000000e+00 
9.5000000e-03 7.7942286e-03 0.0000000e+00 
1.0000000e-02 1.0000000e-02 0.0000000e+00 
1.0000000e-02 8.6602540e-03 0.0000000e+00 
9.5000000e-03 6.0621778e-03 0.0000000e+00 
9.0000000e-03 5.0000000e-03 0.0000000e+00 
1.0000000e-02 6.9282032e-03 0.0000000e+00 
1.0500000e-02 7.7942286e-03 0.0000000e+00 
1.1000000e-02 1.0000000e-02 0.0000000e+00 
1.1000000e-02 8.6602540e-03 0.0000000e+00 
1.0000000e-02 5.0000000e-03 0.0000000e+00 
1.0500000e-02 6.0621778e-03 0.0000000e+00 
1.1000000e-02 6.9282032e-03 0.0000000e+00 
1.1500000e-02 7.7942286e-03 0.0000000e+00 
1.2000000e-02 1.0000000e-02 0.0000000e+00 
1.2000000e-02 8.6602540e-03 0.0000000e+00 
1.1000000e-02 5.0000000e-03 0.0000000e+00 
1.1500000e-02 6.0621778e-03 0.0000000e+00 
1.2000000e-02 6.9282032e-03 0.0000000e+00 
1.2500000e-02 7.7942286e-03 0.0000000e+00 
1.3000000e-02 1.0000000e-02 0.0000000e+00 
1.2000000e-02 5.0000000e-03 0.0000000e+00 
1.3000000e-02 8.6602540e-03 0.0000000e+00 
1.2500000e-02 6.0621778e-03 0.0000000e+00 
1.3000000e-02 6.9282032e-03 0.0000000e+00 
1.3500000e-02 7.7942286e-03 0.0000000e+00 
1.3000000e-02 5.0000000e-03 0.0000000e+00 
1.4000000e-02 1.0000000e-02 0.0000000e+00 
1.3500000e-02 6.0621778e-03 0.0000000e+00 
1.4000000e-02 8.6602540e-03 0.0000000e+00 
1.4000000e-02 6.9282032e-03 0.0000000e+00 
1.4500000e-02 7.7942286e-03 0.0000000e+00 
1.4000000e-02 5.0000000e-03 0.0000000e+00 
1.5000000e-02 1.0000000e-02 0.0000000e+00 
1.4500000e-02 6.0621778e-03 0.0000000e+00 
1.5000000e-02 8.6602540e-03 0.0000000e+00 
1.5000000e-02 6.9282032e-03 0.0000000e+00 
1.5500000e-02 7.7942286e-03 0.0000000e+00 
1.5000000e-02 5.0000000e-03 0.0000000e+00 
1.5500000e-02 6.0621778e-03 0.0000000e+00 
1.6000000e-02 1.0000000e-02 0.0000000e+00 
1.6000000e-02 8.6602540e-03 0.0000000e+00 
1.6000000e-02 6.9282032e-03 0.0000000e+00 
1.6500000e-02 7.7942286e-03 0.0000000e+00 
1.6000000e-02 5.0000000e-03 0.0000000e+00 
1.6500000e-02 6.0621778e-03 0.0000000e+00 
1.7000000e-02 1.0000000e-02 0.0000000e+00 
1.7000000e-02 8.6602540e-03 0.0000000e+00 
1.7000000e-02 6.9282032e-03 0.0000000e+00 
1.7500000e-02 7.7942286e-03 0.0000000e+00 
1.7000000e-02 5.0000000e-03 0.0000000e+00 
1.7500000e-02 6.0621778e-03 0.0000000e+00 
1.8000000e-02 1.0000000e-02 0.0000000e+00 
1.8200001e-02 8.8497433e-03 0.0000000e+00 
1.8000000e-02 6.9282032e-03 0.0000000e+00 
1.8500000e-02 7.7942286e-03 0.0000000e+00 
1.8000000e-02 5.0000000e-03 0.0000000e+00 
1.8500000e-02 6.0621778e-03 0.0000000e+00 
1.9000000e-02 1.0000000e-02 0.0000000e+00 
1.9200006e-02 8.8497484e-03 0.0000000e+00 
1.9000000e-02 6.9282032e-03 0.0000000e+00 
1.9500000e-02 7.7942286e-03 0.0000000e+00 
1.9000000e-02 5.0000000e-03 0.0000000e+00 
1.9500000e-02 6.0621778e-03 0.0000000e+00 
2.0000000e-02 1.0000000e-02 0.0000000e+00 
2.0200039e-02 8.8497788e-03 0.0000000e+00 
2.0000000e-02 6.9282032e-03 0.0000000e+00 
2.0000000e-02 5.0000000e-03 0.0000000e+00 
2.0500000e-02 7.7942286e-03 0.0000000e+00 
2.0500000e-02 6.0621778e-03 0.0000000e+00 
2.0000000e-02 4.0000000e-03 0.0000000e+00 
2.1000000e-02 1.0000000e-02 0.0000000e+00 
2.0000000e-02 3.0000000e-03 0.0000000e+00 
2.1000000e-02 6.9282032e-03 0.0000000e+00 
2.1200231e-02 8.8499616e-03 0.0000000e+00 
2.0902778e-02 5.0992690e-03 0.0000000e+00 
2.0000000e-02 2.0000000e-03 0.0000000e+00 
2.1500000e-02 7.7942286e-03 0.0000000e+00 
2.1500000e-02 6.0621778e-03 0.0000000e+00 
2.0000000e-02 1.0000000e-03 0.0000000e+00 
2.0966667e-02 3.4808542e-03 0.0000000e+00 
2.2000000e-02 1.0000000e-02 0.0000000e+00 
2.1416667e-02 4.2751058e-03 0.0000000e+00 
2.2000000e-02 6.9282032e-03 0.0000000e+00 
2.2201389e-02 8.8510582e-03 0.0000000e+00 
2.0000000e-02 0.0000000e+00 0.0000000e+00 
2.2000000e-02 5.1961524e-03 0.0000000e+00 
2.1000000e-02 1.7320508e-03 0.0000000e+00 
2.2500000e-02 7.7942286e-03 0.0000000e+00 
2.1416667e-02 2.6650635e-03 0.0000000e+00 
2.2500000e-02 6.0621778e-03 0.0000000e+00 
2.2000000e-02 3.4641016e-03 0.0000000e+00 
2.3000000e-02 1.0000000e-02 0.0000000e+00 
2.2500000e-02 4.3301270e-03 0.0000000e+00 
2.3000000e-02 6.9282032e-03 0.0000000e+00 
2.1000000e-02 0.0000000e+00 0.0000000e+00 
2.1416667e-02 8.8835450e-04 0.0000000e+00 
2.3257760e-02 8.9043560e-03 0.0000000e+00 
2.3000000e-02 5.1961524e-03 0.0000000e+00 
2.2000000e-02 1.7320508e-03 0.0000000e+00 
2.2500000e-02 2.5980762e-03 0.0000000e+00 
2.3595170e-02 7.8837349e-03 0.0000000e+00 
2.3500000e-02 6.0621778e-03 0.0000000e+00 
2.3000000e-02 3.4641016e-03 0.0000000e+00 
2.4000000e-02 1.0000000e-02 0.0000000e+00 
2.2000000e-02 0.0000000e+00 0.0000000e+00 
2.3500000e-02 4.3301270e-03 0.0000000e+00 
2.4000000e-02 6.9282032e-03 0.0000000e+00 
2.4250000e-02 8.8971143e-03 0.0000000e+00 
2.2500000e-02 8.6602540e-04 0.0000000e+00 
2.3000000e-02 1.7320508e-03 0.0000000e+00 
2.4000000e-02 5.1961524e-03 0.0000000e+00 
2.3500000e-02 2.5980762e-03 0.0000000e+00 
2.4612690e-02 7.8970225e-03 0.0000000e+00 
2.4500000e-02 6.0621778e-03 0.0000000e+00 
2.4000000e-02 3.4641016e-03 0.0000000e+00 
2.5000000e-02 1.0000000e-02 0.0000000e+00 
2.3000000e-02 0.0000000e+00 0.0000000e+00 
2.4500000e-02 4.3301270e-03 0.0000000e+00 
2.5000000e-02 6.9282032e-03 0.0000000e+00 
2.3500000e-02 8.6602540e-04 0.0000000e+00 
2.5291667e-02 8.9365910e-03 0.0000000e+00 
2.4000000e-02 1.7320508e-03 0.0000000e+00 
2.5000000e-02 5.1961524e-03 0.0000000e+00 
2.4500000e-02 2.5980762e-03 0.0000000e+00 
2.5634472e-02 7.8977948e-03 0.0000000e+00 
2.5500000e-02 6.0621778e-03 0.0000000e+00 
2.5000000e-02 3.4641016e-03 0.0000000e+00 
2.6000000e-02 1.0000000e-02 0.0000000e+00 
2.4000000e-02 0.0000000e+00 0.0000000e+00 
2.5500000e-02 4.3301270e-03 0.0000000e+00 
2.4500000e-02 8.6602540e-04 0.0000000e+00 
2.6000000e-02 6.9282032e-03 0.0000000e+00 
2.5000000e-02 1.7320508e-03 0.0000000e+00 
2.6338294e-02 8.9037524e-03 0.0000000e+00 
2.6000000e-02 5.1961524e-03 0.0000000e+00 
2.5500000e-02 2.5980762e-03 0.0000000e+00 
2.6676871e-02 7.8957904e-03 0.0000000e+00 
2.6500000e-02 6.0621778e-03 0.0000000e+00 
2.6000000e-02 3.4641016e-03 0.0000000e+00 
2.5000000e-02 0.0000000e+00 0.0000000e+00 
2.7000000e-02 1.0000000e-02 0.0000000e+00 
2.5500000e-02 8.6602540e-04 0.0000000e+00 
2.6500000e-02 4.3301270e-03 0.0000000e+00 
2.7000000e-02 6.9282032e-03 0.0000000e+00 
2.6000000e-02 1.7320508e-03 0.0000000e+00 
2.7000000e-02 5.1961524e-03 0.0000000e+00 
2.6500000e-02 2.5980762e-03 0.0000000e+00 
2.7561224e-02 8.7959043e-03 0.0000000e+00 
2.7530612e-02 7.6861348e-03 0.0000000e+00 
2.7000000e-02 3.4641016e-03 0.0000000e+00 
2.7500000e-02 6.0621778e-03 0.0000000e+00 
2.6000000e-02 0.0000000e+00 0.0000000e+00 
2.8000000e-02 1.0000000e-02 0.0000000e+00 
2.6500000e-02 8.6602540e-04 0.0000000e+00 
2.7500000e-02 4.3301270e-03 0.0000000e+00 
2.8000000e-02 6.9282032e-03 0.0000000e+00 
2.7000000e-02 1.7320508e-03 0.0000000e+00 
2.8000000e-02 5.1961524e-03 0.0000000e+00 
2.7500000e-02 2.5980762e-03 0.0000000e+00 
2.8414966e-02 7.8825729e-03 0.0000000e+00 
2.8000000e-02 3.4641016e-03 0.0000000e+00 
2.8500000e-02 6.0621778e-03 0.0000000e+00 
2.7000000e-02 0.0000000e+00 0.0000000e+00 
2.8952042e-02 9.0554553e-03 0.0000000e+00 
2.7500000e-02 8.6602540e-04 0.0000000e+00 
2.9000000e-02 1.0000000e-02 0.0000000e+00 
2.8500000e-02 4.3301270e-03 0.0000000e+00 
2.9000000e-02 6.9282032e-03 0.0000000e+00 
2.8000000e-02 1.7320508e-03 0.0000000e+00 
2.9000000e-02 5.1961524e-03 0.0000000e+00 
2.8500000e-02 2.5980762e-03 0.0000000e+00 
2.9500000e-02 7.7942286e-03 0.0000000e+00 
2.9000000e-02 3.4641016e-03 0.0000000e+00 
[...]
POINT_DATA 1079
FIELD FieldData 4
VELOCITY 3 1079  float
0.0000000e+00 0.0000000e+00 0.0000000e+00 
0.0000000e+00 0.0000000e+00 0.0000000e+00 
1.0000000e-02 -0.0000000e+00 -0.0000000e+00 
0.0000000e+00 0.0000000e+00 0.0000000e+00 
0.0000000e+00 0.0000000e+00 0.0000000e+00 
1.0000000e-02 -0.0000000e+00 -0.0000000e+00 
0.0000000e+00 0.0000000e+00 0.0000000e+00 
0.0000000e+00 0.0000000e+00 0.0000000e+00 
0.0000000e+00 0.0000000e+00 0.0000000e+00 
1.0000000e-02 -0.0000000e+00 -0.0000000e+00 
0.0000000e+00 0.0000000e+00 0.0000000e+00 
0.0000000e+00 0.0000000e+00 0.0000000e+00 
0.0000000e+00 0.0000000e+00 0.0000000e+00 
0.0000000e+00 0.0000000e+00 0.0000000e+00 
0.0000000e+00 0.0000000e+00 0.0000000e+00 
1.0000000e-02 -0.0000000e+00 -0.0000000e+00 
0.0000000e+00 0.0000000e+00 0.0000000e+00 
0.0000000e+00 0.0000000e+00 0.0000000e+00 
0.0000000e+00 0.0000000e+00 0.0000000e+00 
0.0000000e+00 0.0000000e+00 0.0000000e+00 
0.0000000e+00 0.0000000e+00 0.0000000e+00 
0.0000000e+00 0.0000000e+00 0.0000000e+00 
0.0000000e+00 0.0000000e+00 0.0000000e+00 
0.0000000e+00 0.0000000e+00 0.0000000e+00 
0.0000000e+00 0.0000000e+00 0.0000000e+00 
0.0000000e+00 0.0000000e+00 0.0000000e+00 
0.0000000e+00 0.0000000e+00 0.0000000e+00 
0.0000000e+00 0.0000000e+00 0.0000000e+00 
0.0000000e+00 0.0000000e+00 0.0000000e+00 
0.0000000e+00 0.0000000e+00 0.0000000e+00 
0.0000000e+00 0.0000000e+00 0.0000000e+00 
0.0000000e+00 0.0000000e+00 0.0000000e+00 
0.0000000e+00 0.0000000e+00 0.0000000e+00 
0.0000000e+00 0.0000000e+00 0.0000000e+00 
0.0000000e+00 0.0000000e+00 0.0000000e+00 
0.0000000e+00 0.0000000e+00 0.0000000e+00 
0.0000000e+00 0.0000000e+00 0.0000000e+00 
0.0000000e+00 0.0000000e+00 0.0000000e+00 
0.0000000e+00 0.0000000e+00 0.0000000e+00 
0.0000000e+00 0.0000000e+00 0.0000000e+00 
0.0000000e+00 0.0000000e+00 0.0000000e+00 
0.0000000e+00 0.0000000e+00 0.0000000e+00 
0.0000000e+00 0.0000000e+00 0.0000000e+00 
0.0000000e+00 0.0000000e+00 0.0000000e+00 
0.0000000e+00 0.0000000e+00 0.0000000e+00 
0.0000000e+00 0.0000000e+00 0.0000000e+00 
0.0000000e+00 0.0000000e+00 0.0000000e+00 
0.0000000e+00 0.0000000e+00 0.0000000e+00 
0.0000000e+00 0.0000000e+00 0.0000000e+00 
0.0000000e+00 0.0000000e+00 0.0000000e+00 
0.0000000e+00 0.0000000e+00 0.0000000e+00 
0.0000000e+00 0.0000000e+00 0.0000000e+00 
0.0000000e+00 0.0000000e+00 0.0000000e+00 
0.0000000e+00 0.0000000e+00 0.0000000e+00 
0.0000000e+00 0.0000000e+00 0.0000000e+00 
0.0000000e+00 0.0000000e+00 0.0000000e+00 
0.0000000e+00 0.0000000e+00 0.0000000e+00 
0.0000000e+00 0.0000000e+00 0.0000000e+00 
0.0000000e+00 0.0000000e+00 0.0000000e+00 
0.0000000e+00 0.0000000e+00 0.0000000e+00 
0.0000000e+00 0.0000000e+00 0.0000000e+00 
0.0000000e+00 0.0000000e+00 0.0000000e+00 
0.0000000e+00 0.0000000e+00 0.0000000e+00 
0.0000000e+00 0.0000000e+00 0.0000000e+00 
0.0000000e+00 0.0000000e+00 0.0000000e+00 
0.0000000e+00 0.0000000e+00 0.0000000e+00 
0.0000000e+00 0.0000000e+00 0.0000000e+00 
0.0000000e+00 0.0000000e+00 0.0000000e+00 
0.0000000e+00 0.0000000e+00 0.0000000e+00 
0.0000000e+00 0.0000000e+00 0.0000000e+00 
0.0000000e+00 0.0000000e+00 0.0000000e+00 
0.0000000e+00 0.0000000e+00 0.0000000e+00 
0.0000000e+00 0.0000000e+00 0.0000000e+00 
0.0000000e+00 0.0000000e+00 0.0000000e+00 
0.0000000e+00 0.0000000e+00 0.0000000e+00 
0.0000000e+00 0.0000000e+00 0.0000000e+00 
0.0000000e+00 0.0000000e+00 0.0000000e+00 
0.0000000e+00 0.0000000e+00 0.0000000e+00 
0.0000000e+00 0.0000000e+00 0.0000000e+00 
0.0000000e+00 0.0000000e+00 0.0000000e+00 
0.0000000e+00 0.0000000e+00 0.0000000e+00 
0.0000000e+00 0.0000000e+00 0.0000000e+00 
0.0000000e+00 0.0000000e+00 0.0000000e+00 
0.0000000e+00 0.0000000e+00 0.0000000e+00 
0.0000000e+00 0.0000000e+00 0.0000000e+00 
0.0000000e+00 0.0000000e+00 0.0000000e+00 
0.0000000e+00 0.0000000e+00 0.0000000e+00 
0.0000000e+00 0.0000000e+00 0.0000000e+00 
0.0000000e+00 0.0000000e+00 0.0000000e+00 
0.0000000e+00 0.0000000e+00 0.0000000e+00 
0.0000000e+00 0.0000000e+00 0.0000000e+00 
0.0000000e+00 0.0000000e+00 0.0000000e+00 
0.0000000e+00 0.0000000e+00 0.0000000e+00 
0.0000000e+00 0.0000000e+00 0.0000000e+00 
0.0000000e+00 0.0000000e+00 0.0000000e+00 
0.0000000e+00 0.0000000e+00 0.0000000e+00 
0.0000000e+00 0.0000000e+00 0.0000000e+00 
0.0000000e+00 0.0000000e+00 0.0000000e+00 
0.0000000e+00 0.0000000e+00 0.0000000e+00 
0.0000000e+00 0.0000000e+00 0.0000000e+00 
0.0000000e+00 0.0000000e+00 0.0000000e+00 
0.0000000e+00 0.0000000e+00 0.0000000e+00 
0.0000000e+00 0.0000000e+00 0.0000000e+00 
0.0000000e+00 0.0000000e+00 0.0000000e+00 
0.0000000e+00 0.0000000e+00 0.0000000e+00 
0.0000000e+00 0.0000000e+00 0.0000000e+00 
0.0000000e+00 0.0000000e+00 0.0000000e+00 
0.0000000e+00 0.0000000e+00 0.0000000e+00 
0.0000000e+00 0.0000000e+00 0.0000000e+00 
0.0000000e+00 0.0000000e+00 0.0000000e+00 
0.0000000e+00 0.0000000e+00 0.0000000e+00 
0.0000000e+00 0.0000000e+00 0.0000000e+00 
0.0000000e+00 0.0000000e+00 0.0000000e+00 
0.0000000e+00 0.0000000e+00 0.0000000e+00 
0.0000000e+00 0.0000000e+00 0.0000000e+00 
0.0000000e+00 0.0000000e+00 0.0000000e+00 
0.0000000e+00 0.0000000e+00 0.0000000e+00 
0.0000000e+00 0.0000000e+00 0.0000000e+00 
0.0000000e+00 0.0000000e+00 0.0000000e+00 
0.0000000e+00 0.0000000e+00 0.0000000e+00 
0.0000000e+00 0.0000000e+00 0.0000000e+00 
0.0000000e+00 0.0000000e+00 0.0000000e+00 
0.0000000e+00 0.0000000e+00 0.0000000e+00 
0.0000000e+00 0.0000000e+00 0.0000000e+00 
0.0000000e+00 0.0000000e+00 0.0000000e+00 
0.0000000e+00 0.0000000e+00 0.0000000e+00 
0.0000000e+00 0.0000000e+00 0.0000000e+00 
0.0000000e+00 0.0000000e+00 0.0000000e+00 
0.0000000e+00 0.0000000e+00 0.0000000e+00 
0.0000000e+00 0.0000000e+00 0.0000000e+00 
0.0000000e+00 0.0000000e+00 0.0000000e+00 
0.0000000e+00 0.0000000e+00 0.0000000e+00 
0.0000000e+00 0.0000000e+00 0.0000000e+00 
0.0000000e+00 0.0000000e+00 0.0000000e+00 
0.0000000e+00 0.0000000e+00 0.0000000e+00 
0.0000000e+00 0.0000000e+00 0.0000000e+00 
0.0000000e+00 0.0000000e+00 0.0000000e+00 
0.0000000e+00 0.0000000e+00 0.0000000e+00 
0.0000000e+00 0.0000000e+00 0.0000000e+00 
0.0000000e+00 0.0000000e+00 0.0000000e+00 
0.0000000e+00 0.0000000e+00 0.0000000e+00 
0.0000000e+00 0.0000000e+00 0.0000000e+00 
0.0000000e+00 0.0000000e+00 0.0000000e+00 
0.0000000e+00 0.0000000e+00 0.0000000e+00 
0.0000000e+00 0.0000000e+00 0.0000000e+00 
0.0000000e+00 0.0000000e+00 0.0000000e+00 
0.0000000e+00 0.0000000e+00 0.0000000e+00 
0.0000000e+00 0.0000000e+00 0.0000000e+00 
0.0000000e+00 0.0000000e+00 0.0000000e+00 
0.0000000e+00 0.0000000e+00 0.0000000e+00 
0.0000000e+00 0.0000000e+00 0.0000000e+00 
0.0000000e+00 0.0000000e+00 0.0000000e+00 
0.0000000e+00 0.0000000e+00 0.0000000e+00 
0.0000000e+00 0.0000000e+00 0.0000000e+00 
0.0000000e+00 0.0000000e+00 0.0000000e+00 
0.0000000e+00 0.0000000e+00 0.0000000e+00 
0.0000000e+00 0.0000000e+00 0.0000000e+00 
0.0000000e+00 0.0000000e+00 0.0000000e+00 
0.0000000e+00 0.0000000e+00 0.0000000e+00 
0.0000000e+00 0.0000000e+00 0.0000000e+00 
0.0000000e+00 0.0000000e+00 0.0000000e+00 
0.0000000e+00 0.0000000e+00 0.0000000e+00 
0.0000000e+00 0.0000000e+00 0.0000000e+00 
0.0000000e+00 0.0000000e+00 0.0000000e+00 
0.0000000e+00 0.0000000e+00 0.0000000e+00 
0.0000000e+00 0.0000000e+00 0.0000000e+00 
0.0000000e+00 0.0000000e+00 0.0000000e+00 
0.0000000e+00 0.0000000e+00 0.0000000e+00 
0.0000000e+00 0.0000000e+00 0.0000000e+00 
0.0000000e+00 0.0000000e+00 0.0000000e+00 
0.0000000e+00 0.0000000e+00 0.0000000e+00 
0.0000000e+00 0.0000000e+00 0.0000000e+00 
0.0000000e+00 0.0000000e+00 0.0000000e+00 
0.0000000e+00 0.0000000e+00 0.0000000e+00 
0.0000000e+00 0.0000000e+00 0.0000000e+00 
0.0000000e+00 0.0000000e+00 0.0000000e+00 
0.0000000e+00 0.0000000e+00 0.0000000e+00 
0.0000000e+00 0.0000000e+00 0.0000000e+00 
0.0000000e+00 0.0000000e+00 0.0000000e+00 
0.0000000e+00 0.0000000e+00 0.0000000e+00 
0.0000000e+00 0.0000000e+00 0.0000000e+00 
0.0000000e+00 0.0000000e+00 0.0000000e+00 
0.0000000e+00 0.0000000e+00 0.0000000e+00 
0.0000000e+00 0.0000000e+00 0.0000000e+00 
0.0000000e+00 0.0000000e+00 0.0000000e+00 
0.0000000e+00 0.0000000e+00 0.0000000e+00 
0.0000000e+00 0.0000000e+00 0.0000000e+00 
0.0000000e+00 0.0000000e+00 0.0000000e+00 
0.0000000e+00 0.0000000e+00 0.0000000e+00 
0.0000000e+00 0.0000000e+00 0.0000000e+00 
0.0000000e+00 0.0000000e+00 0.0000000e+00 
0.0000000e+00 0.0000000e+00 0.0000000e+00 
0.0000000e+00 0.0000000e+00 0.0000000e+00 
0.0000000e+00 0.0000000e+00 0.0000000e+00 
0.0000000e+00 0.0000000e+00 0.0000000e+00 
0.0000000e+00 0.0000000e+00 0.0000000e+00 
0.0000000e+00 0.0000000e+00 0.0000000e+00 
0.0000000e+00 0.0000000e+00 0.0000000e+00 
0.0000000e+00 0.0000000e+00 0.0000000e+00 
0.0000000e+00 0.0000000e+00 0.0000000e+00 
0.0000000e+00 0.0000000e+00 0.0000000e+00 
0.0000000e+00 0.0000000e+00 0.0000000e+00 
0.0000000e+00 0.0000000e+00 0.0000000e+00 
0.0000000e+00 0.0000000e+00 0.0000000e+00 
0.0000000e+00 0.0000000e+00 0.0000000e+00 
0.0000000e+00 0.0000000e+00 0.0000000e+00 
0.0000000e+00 0.0000000e+00 0.0000000e+00 
0.0000000e+00 0.0000000e+00 0.0000000e+00 
0.0000000e+00 0.0000000e+00 0.0000000e+00 
0.0000000e+00 0.0000000e+00 0.0000000e+00 
0.0000000e+00 0.0000000e+00 0.0000000e+00 
0.0000000e+00 0.0000000e+00 0.0000000e+00 
0.0000000e+00 0.0000000e+00 0.0000000e+00 
0.0000000e+00 0.0000000e+00 0.0000000e+00 
0.0000000e+00 0.0000000e+00 0.0000000e+00 
0.0000000e+00 0.0000000e+00 0.0000000e+00 
0.0000000e+00 0.0000000e+00 0.0000000e+00 
0.0000000e+00 0.0000000e+00 0.0000000e+00 
0.0000000e+00 0.0000000e+00 0.0000000e+00 
0.0000000e+00 0.0000000e+00 0.0000000e+00 
0.0000000e+00 0.0000000e+00 0.0000000e+00 
0.0000000e+00 0.0000000e+00 0.0000000e+00 
0.0000000e+00 0.0000000e+00 0.0000000e+00 
0.0000000e+00 0.0000000e+00 0.0000000e+00 
0.0000000e+00 0.0000000e+00 0.0000000e+00 
0.0000000e+00 0.0000000e+00 0.0000000e+00 
0.0000000e+00 0.0000000e+00 0.0000000e+00 
0.0000000e+00 0.0000000e+00 0.0000000e+00 
0.0000000e+00 0.0000000e+00 0.0000000e+00 
0.0000000e+00 0.0000000e+00 0.0000000e+00 
0.0000000e+00 0.0000000e+00 0.0000000e+00 
0.0000000e+00 0.0000000e+00 0.0000000e+00 
0.0000000e+00 0.0000000e+00 0.0000000e+00 
0.0000000e+00 0.0000000e+00 0.0000000e+00 
0.0000000e+00 0.0000000e+00 0.0000000e+00 
0.0000000e+00 0.0000000e+00 0.0000000e+00 
0.0000000e+00 0.0000000e+00 0.0000000e+00 
0.0000000e+00 0.0000000e+00 0.0000000e+00 
0.0000000e+00 0.0000000e+00 0.0000000e+00 
0.0000000e+00 0.0000000e+00 0.0000000e+00 
0.0000000e+00 0.0000000e+00 0.0000000e+00 
0.0000000e+00 0.0000000e+00 0.0000000e+00 
0.0000000e+00 0.0000000e+00 0.0000000e+00 
0.0000000e+00 0.0000000e+00 0.0000000e+00 
0.0000000e+00 0.0000000e+00 0.0000000e+00 
0.0000000e+00 0.0000000e+00 0.0000000e+00 
0.0000000e+00 0.0000000e+00 0.0000000e+00 
0.0000000e+00 0.0000000e+00 0.0000000e+00 
0.0000000e+00 0.0000000e+00 0.0000000e+00 
0.0000000e+00 0.0000000e+00 0.0000000e+00 
0.0000000e+00 0.0000000e+00 0.0000000e+00 
0.0000000e+00 0.0000000e+00 0.0000000e+00 
0.0000000e+00 0.0000000e+00 0.0000000e+00 
0.0000000e+00 0.0000000e+00 0.0000000e+00 
0.0000000e+00 0.0000000e+00 0.0000000e+00 
0.0000000e+00 0.0000000e+00 0.0000000e+00 
0.0000000e+00 0.0000000e+00 0.0000000e+00 
0.0000000e+00 0.0000000e+00 0.0000000e+00 
0.0000000e+00 0.0000000e+00 0.0000000e+00 
0.0000000e+00 0.0000000e+00 0.0000000e+00 
0.0000000e+00 0.0000000e+00 0.0000000e+00 
0.0000000e+00 0.0000000e+00 0.0000000e+00 
0.0000000e+00 0.0000000e+00 0.0000000e+00 
0.0000000e+00 0.0000000e+00 0.0000000e+00 
0.0000000e+00 0.0000000e+00 0.0000000e+00 
0.0000000e+00 0.0000000e+00 0.0000000e+00 
0.0000000e+00 0.0000000e+00 0.0000000e+00 
0.0000000e+00 0.0000000e+00 0.0000000e+00 
0.0000000e+00 0.0000000e+00 0.0000000e+00 
0.0000000e+00 0.0000000e+00 0.0000000e+00 
0.0000000e+00 0.0000000e+00 0.0000000e+00 
0.0000000e+00 0.0000000e+00 0.0000000e+00 
0.0000000e+00 0.0000000e+00 0.0000000e+00 
0.0000000e+00 0.0000000e+00 0.0000000e+00 
0.0000000e+00 0.0000000e+00 0.0000000e+00 
0.0000000e+00 0.0000000e+00 0.0000000e+00 
0.0000000e+00 0.0000000e+00 0.0000000e+00 
0.0000000e+00 0.0000000e+00 0.0000000e+00 
0.0000000e+00 0.0000000e+00 0.0000000e+00 
0.0000000e+00 0.0000000e+00 0.0000000e+00 
0.0000000e+00 0.0000000e+00 0.0000000e+00 
0.0000000e+00 0.0000000e+00 0.0000000e+00 
0.0000000e+00 0.0000000e+00 0.0000000e+00 
0.0000000e+00 0.0000000e+00 0.0000000e+00 
0.0000000e+00 0.0000000e+00 0.0000000e+00 
0.0000000e+00 0.0000000e+00 0.0000000e+00 
0.0000000e+00 0.0000000e+00 0.0000000e+00 
0.0000000e+00 0.0000000e+00 0.0000000e+00 
0.0000000e+00 0.0000000e+00 0.0000000e+00 
0.0000000e+00 0.0000000e+00 0.0000000e+00 
0.0000000e+00 0.0000000e+00 0.0000000e+00 
0.0000000e+00 0.0000000e+00 0.0000000e+00 
0.0000000e+00 0.0000000e+00 0.0000000e+00 
0.0000000e+00 0.0000000e+00 0.0000000e+00 
0.0000000e+00 0.0000000e+00 0.0000000e+00 
0.0000000e+00 0.0000000e+00 0.0000000e+00 
0.0000000e+00 0.0000000e+00 0.0000000e+00 
0.0000000e+00 0.0000000e+00 0.0000000e+00 
0.0000000e+00 0.0000000e+00 0.0000000e+00 
0.0000000e+00 0.0000000e+00 0.0000000e+00 
0.0000000e+00 0.0000000e+00 0.0000000e+00 
0.0000000e+00 0.0000000e+00 0.0000000e+00 
0.0000000e+00 0.0000000e+00 0.0000000e+00 
0.0000000e+00 0.0000000e+00 0.0000000e+00 
0.0000000e+00 0.0000000e+00 0.0000000e+00 
0.0000000e+00 0.0000000e+00 0.0000000e+00 
0.0000000e+00 0.0000000e+00 0.0000000e+00 
0.0000000e+00 0.0000000e+00 0.0000000e+00 
0.0000000e+00 0.0000000e+00 0.0000000e+00 
0.0000000e+00 0.0000000e+00 0.0000000e+00 
0.0000000e+00 0.0000000e+00 0.0000000e+00 
0.0000000e+00 0.0000000e+00 0.0000000e+00 
0.0000000e+00 0.0000000e+00 0.0000000e+00 
0.0000000e+00 0.0000000e+00 0.0000000e+00 
0.0000000e+00 0.0000000e+00 0.0000000e+00 
0.0000000e+00 0.0000000e+00 0.0000000e+00 
0.0000000e+00 0.0000000e+00 0.0000000e+00 
0.0000000e+00 0.0000000e+00 0.0000000e+00 
0.0000000e+00 0.0000000e+00 0.0000000e+00 
0.0000000e+00 0.0000000e+00 0.0000000e+00 
0.0000000e+00 0.0000000e+00 0.0000000e+00 
0.0000000e+00 0.0000000e+00 0.0000000e+00 
0.0000000e+00 0.0000000e+00 0.0000000e+00 
0.0000000e+00 0.0000000e+00 0.0000000e+00 
0.0000000e+00 0.0000000e+00 0.0000000e+00 
0.0000000e+00 0.0000000e+00 0.0000000e+00 
0.0000000e+00 0.0000000e+00 0.0000000e+00 
0.0000000e+00 0.0000000e+00 0.0000000e+00 
0.0000000e+00 0.0000000e+00 0.0000000e+00 
0.0000000e+00 0.0000000e+00 0.0000000e+00 
0.0000000e+00 0.0000000e+00 0.0000000e+00 
0.0000000e+00 0.0000000e+00 0.0000000e+00 
0.0000000e+00 0.0000000e+00 0.0000000e+00 
0.0000000e+00 0.0000000e+00 0.0000000e+00 
0.0000000e+00 0.0000000e+00 0.0000000e+00 
0.0000000e+00 0.0000000e+00 0.0000000e+00 
0.0000000e+00 0.0000000e+00 0.0000000e+00 
0.0000000e+00 0.0000000e+00 0.0000000e+00 
0.0000000e+00 0.0000000e+00 0.0000000e+00 
0.0000000e+00 0.0000000e+00 0.0000000e+00 
0.0000000e+00 0.0000000e+00 0.0000000e+00 
0.0000000e+00 0.0000000e+00 0.0000000e+00 
0.0000000e+00 0.0000000e+00 0.0000000e+00 
0.0000000e+00 0.0000000e+00 0.0000000e+00 
0.0000000e+00 0.0000000e+00 0.0000000e+00 
0.0000000e+00 0.0000000e+00 0.0000000e+00 
0.0000000e+00 0.0000000e+00 0.0000000e+00 
0.0000000e+00 0.0000000e+00 0.0000000e+00 
0.0000000e+00 0.0000000e+00 0.0000000e+00 
0.0000000e+00 0.0000000e+00 0.0000000e+00 
0.0000000e+00 0.0000000e+00 0.0000000e+00 
0.0000000e+00 0.0000000e+00 0.0000000e+00 
0.0000000e+00 0.0000000e+00 0.0000000e+00 
0.0000000e+00 0.0000000e+00 0.0000000e+00 
0.0000000e+00 0.0000000e+00 0.0000000e+00 
0.0000000e+00 0.0000000e+00 0.0000000e+00 
0.0000000e+00 0.0000000e+00 0.0000000e+00 
0.0000000e+00 0.0000000e+00 0.0000000e+00 
0.0000000e+00 0.0000000e+00 0.0000000e+00 
0.0000000e+00 0.0000000e+00 0.0000000e+00 
0.0000000e+00 0.0000000e+00 0.0000000e+00 
0.0000000e+00 0.0000000e+00 0.0000000e+00 
0.0000000e+00 0.0000000e+00 0.0000000e+00 
0.0000000e+00 0.0000000e+00 0.0000000e+00 
0.0000000e+00 0.0000000e+00 0.0000000e+00 
0.0000000e+00 0.0000000e+00 0.0000000e+00 
0.0000000e+00 0.0000000e+00 0.0000000e+00 
0.0000000e+00 0.0000000e+00 0.0000000e+00 
0.0000000e+00 0.0000000e+00 0.0000000e+00 
0.0000000e+00 0.0000000e+00 0.0000000e+00 
0.0000000e+00 0.0000000e+00 0.0000000e+00 
0.0000000e+00 0.0000000e+00 0.0000000e+00 
0.0000000e+00 0.0000000e+00 0.0000000e+00 
0.0000000e+00 0.0000000e+00 0.0000000e+00 
0.0000000e+00 0.0000000e+00 0.0000000e+00 
0.0000000e+00 0.0000000e+00 0.0000000e+00 
0.0000000e+00 0.0000000e+00 0.0000000e+00 
0.0000000e+00 0.0000000e+00 0.0000000e+00 
0.0000000e+00 0.0000000e+00 0.0000000e+00 
0.0000000e+00 0.0000000e+00 0.0000000e+00 
0.0000000e+00 0.0000000e+00 0.0000000e+00 
0.0000000e+00 0.0000000e+00 0.0000000e+00 
0.0000000e+00 0.0000000e+00 0.0000000e+00 
0.0000000e+00 0.0000000e+00 0.0000000e+00 
0.0000000e+00 0.0000000e+00 0.0000000e+00 
0.0000000e+00 0.0000000e+00 0.0000000e+00 
0.0000000e+00 0.0000000e+00 0.0000000e+00 
0.0000000e+00 0.0000000e+00 0.0000000e+00 
0.0000000e+00 0.0000000e+00 0.0000000e+00 
0.0000000e+00 0.0000000e+00 0.0000000e+00 
0.0000000e+00 0.0000000e+00 0.0000000e+00 
0.0000000e+00 0.0000000e+00 0.0000000e+00 
0.0000000e+00 0.0000000e+00 0.0000000e+00 
0.0000000e+00 0.0000000e+00 0.0000000e+00 
0.0000000e+00 0.0000000e+00 0.0000000e+00 
0.0000000e+00 0.0000000e+00 0.0000000e+00 
0.0000000e+00 0.0000000e+00 0.0000000e+00 
0.0000000e+00 0.0000000e+00 0.0000000e+00 
0.0000000e+00 0.0000000e+00 0.0000000e+00 
0.0000000e+00 0.0000000e+00 0.0000000e+00 
0.0000000e+00 0.0000000e+00 0.0000000e+00 
0.0000000e+00 0.0000000e+00 0.0000000e+00 
0.0000000e+00 0.0000000e+00 0.0000000e+00 
0.0000000e+00 0.0000000e+00 0.0000000e+00 
0.0000000e+00 0.0000000e+00 0.0000000e+00 
0.0000000e+00 0.0000000e+00 0.0000000e+00 
0.0000000e+00 0.0000000e+00 0.0000000e+00 
0.0000000e+00 0.0000000e+00 0.0000000e+00 
0.0000000e+00 0.0000000e+00 0.0000000e+00 
0.0000000e+00 0.0000000e+00 0.0000000e+00 
0.0000000e+00 0.0000000e+00 0.0000000e+00 
0.0000000e+00 0.0000000e+00 0.0000000e+00 
0.0000000e+00 0.0000000e+00 0.0000000e+00 
0.0000000e+00 0.0000000e+00 0.0000000e+00 
0.0000000e+00 0.0000000e+00 0.0000000e+00 
0.0000000e+00 0.0000000e+00 0.0000000e+00 
0.0000000e+00 0.0000000e+00 0.0000000e+00 
0.0000000e+00 0.0000000e+00 0.0000000e+00 
0.0000000e+00 0.0000000e+00 0.0000000e+00 
0.0000000e+00 0.0000000e+00 0.0000000e+00 
0.0000000e+00 0.0000000e+00 0.0000000e+00 
0.0000000e+00 0.0000000e+00 0.0000000e+00 
0.0000000e+00 0.0000000e+00 0.0000000e+00 
0.0000000e+00 0.0000000e+00 0.0000000e+00 
0.0000000e+00 0.0000000e+00 0.0000000e+00 
0.0000000e+00 0.0000000e+00 0.0000000e+00 
0.0000000e+00 0.0000000e+00 0.0000000e+00 
0.0000000e+00 0.0000000e+00 0.0000000e+00 
0.0000000e+00 0.0000000e+00 0.0000000e+00 
0.0000000e+00 0.0000000e+00 0.0000000e+00 
0.0000000e+00 0.0000000e+00 0.0000000e+00 
0.0000000e+00 0.0000000e+00 0.0000000e+00 
0.0000000e+00 0.0000000e+00 0.0000000e+00 
0.0000000e+00 0.0000000e+00 0.0000000e+00 
0.0000000e+00 0.0000000e+00 0.0000000e+00 
0.0000000e+00 0.0000000e+00 0.0000000e+00 
0.0000000e+00 0.0000000e+00 0.0000000e+00 
0.0000000e+00 0.0000000e+00 0.0000000e+00 
0.0000000e+00 0.0000000e+00 0.0000000e+00 
0.0000000e+00 0.0000000e+00 0.0000000e+00 
0.0000000e+00 0.0000000e+00 0.0000000e+00 
0.0000000e+00 0.0000000e+00 0.0000000e+00 
0.0000000e+00 0.0000000e+00 0.0000000e+00 
0.0000000e+00 0.0000000e+00 0.0000000e+00 
0.0000000e+00 0.0000000e+00 0.0000000e+00 
0.0000000e+00 0.0000000e+00 0.0000000e+00 
0.0000000e+00 0.0000000e+00 0.0000000e+00 
0.0000000e+00 0.0000000e+00 0.0000000e+00 
0.0000000e+00 0.0000000e+00 0.0000000e+00 
0.0000000e+00 0.0000000e+00 0.0000000e+00 
0.0000000e+00 0.0000000e+00 0.0000000e+00 
0.0000000e+00 0.0000000e+00 0.0000000e+00 
0.0000000e+00 0.0000000e+00 0.0000000e+00 
0.0000000e+00 0.0000000e+00 0.0000000e+00 
0.0000000e+00 0.0000000e+00 0.0000000e+00 
0.0000000e+00 0.0000000e+00 0.0000000e+00 
0.0000000e+00 0.0000000e+00 0.0000000e+00 
0.0000000e+00 0.0000000e+00 0.0000000e+00 
0.0000000e+00 0.0000000e+00 0.0000000e+00 
0.0000000e+00 0.0000000e+00 0.0000000e+00 
0.0000000e+00 0.0000000e+00 0.0000000e+00 
0.0000000e+00 0.0000000e+00 0.0000000e+00 
0.0000000e+00 0.0000000e+00 0.0000000e+00 