# vtk DataFile Version 4.0
vtk output
ASCII
DATASET UNSTRUCTURED_GRID
POINTS 101 float
0.0000000e+00 1.0000000e-02 0.0000000e+00 
1.0000000e-03 1.0000000e-02 0.0000000e+00 
2.0000000e-03 1.0000000e-02 0.0000000e+00 
3.0000000e-03 1.0000000e-02 0.0000000e+00 
4.0000000e-03 1.0000000e-02 0.0000000e+00 
5.0000000e-03 1.0000000e-02 0.0000000e+00 
6.0000000e-03 1.0000000e-02 0.0000000e+00 
7.0000000e-03 1.0000000e-02 0.0000000e+00 
8.0000000e-03 1.0000000e-02 0.0000000e+00 
9.0000000e-03 1.0000000e-02 0.0000000e+00 
1.0000000e-02 1.0000000e-02 0.0000000e+00 
1.1000000e-02 1.0000000e-02 0.0000000e+00 
1.2000000e-02 1.0000000e-02 0.0000000e+00 
1.3000000e-02 1.0000000e-02 0.0000000e+00 
1.4000000e-02 1.0000000e-02 0.0000000e+00 
1.5000000e-02 1.0000000e-02 0.0000000e+00 
1.6000000e-02 1.0000000e-02 0.0000000e+00 
1.7000000e-02 1.0000000e-02 0.0000000e+00 
1.8000000e-02 1.0000000e-02 0.0000000e+00 
1.9000000e-02 1.0000000e-02 0.0000000e+00 
2.0000000e-02 1.0000000e-02 0.0000000e+00 
2.1000000e-02 1.0000000e-02 0.0000000e+00 
2.2000000e-02 1.0000000e-02 0.0000000e+00 
2.3000000e-02 1.0000000e-02 0.0000000e+00 
2.4000000e-02 1.0000000e-02 0.0000000e+00 
2.5000000e-02 1.0000000e-02 0.0000000e+00 
2.6000000e-02 1.0000000e-02 0.0000000e+00 
2.7000000e-02 1.0000000e-02 0.0000000e+00 
2.8000000e-02 1.0000000e-02 0.0000000e+00 
2.9000000e-02 1.0000000e-02 0.0000000e+00 
3.0000000e-02 1.0000000e-02 0.0000000e+00 
3.1000000e-02 1.0000000e-02 0.0000000e+00 
3.2000000e-02 1.0000000e-02 0.0000000e+00 
3.3000000e-02 1.0000000e-02 0.0000000e+00 
3.4000000e-02 1.0000000e-02 0.0000000e+00 
3.5000000e-02 1.0000000e-02 0.0000000e+00 
3.6000000e-02 1.0000000e-02 0.0000000e+00 
3.7000000e-02 1.0000000e-02 0.0000000e+00 
3.8000000e-02 1.0000000e-02 0.0000000e+00 
3.9000000e-02 1.0000000e-02 0.0000000e+00 
4.0000000e-02 1.0000000e-02 0.0000000e+00 
4.1000000e-02 1.0000000e-02 0.0000000e+00 
4.2000000e-02 1.0000000e-02 0.0000000e+00 
4.3000000e-02 1.0000000e-02 0.0000000e+00 
4.4000000e-02 1.0000000e-02 0.0000000e+00 
4.5000000e-02 1.0000000e-02 0.0000000e+00 
4.6000000e-02 1.0000000e-02 0.0000000e+00 
4.7000000e-02 1.0000000e-02 0.0000000e+00 
4.8000000e-02 1.0000000e-02 0.0000000e+00 
4.9000000e-02 1.0000000e-02 0.0000000e+00 
5.0000000e-02 1.0000000e-02 0.0000000e+00 
5.1000000e-02 1.0000000e-02 0.0000000e+00 
5.2000000e-02 1.0000000e-02 0.0000000e+00 
5.3000000e-02 1.0000000e-02 0.0000000e+00 
5.4000000e-02 1.0000000e-02 0.0000000e+00 
5.5000000e-02 1.0000000e-02 0.0000000e+00 
5.6000000e-02 1.0000000e-02 0.0000000e+00 
5.7000000e-02 1.0000000e-02 0.0000000e+00 
5.8000000e-02 1.0000000e-02 0.0000000e+00 
5.9000000e-02 1.0000000e-02 0.0000000e+00 
6.0000000e-02 1.0000000e-02 0.0000000e+00 
6.1000000e-02 1.0000000e-02 0.0000000e+00 
6.2000000e-02 1.0000000e-02 0.0000000e+00 
6.3000000e-02 1.0000000e-02 0.0000000e+00 
6.4000000e-02 1.0000000e-02 0.0000000e+00 
6.5000000e-02 1.0000000e-02 0.0000000e+00 
6.6000000e-02 1.0000000e-02 0.0000000e+00 
6.7000000e-02 1.0000000e-02 0.0000000e+00 
6.8000000e-02 1.0000000e-02 0.0000000e+00 
6.9000000e-02 1.0000000e-02 0.0000000e+00 
7.0000000e-02 1.0000000e-02 0.0000000e+00 
7.1000000e-02 1.0000000e-02 0.0000000e+00 
7.2000000e-02 1.0000000e-02 0.0000000e+00 
7.3000000e-02 1.0000000e-02 0.0000000e+00 
7.4000000e-02 1.0000000e-02 0.0000000e+00 
7.5000000e-02 1.0000000e-02 0.0000000e+00 
7.6000000e-02 1.0000000e-02 0.0000000e+00 
7.7000000e-02 1.0000000e-02 0.0000000e+00 
7.8000000e-02 1.0000000e-02 0.0000000e+00 
7.9000000e-02 1.0000000e-02 0.0000000e+00 
8.0000000e-02 1.0000000e-02 0.0000000e+00 
8.1000000e-02 1.0000000e-02 0.0000000e+00 
8.2000000e-02 1.0000000e-02 0.0000000e+00 
8.3000000e-02 1.0000000e-02 0.0000000e+00 
8.4000000e-02 1.0000000e-02 0.0000000e+00 
8.5000000e-02 1.0000000e-02 0.0000000e+00 
8.6000000e-02 1.0000000e-02 0.0000000e+00 
8.7000000e-02 1.0000000e-02 0.0000000e+00 
8.8000000e-02 1.0000000e-02 0.0000000e+00 
8.9000000e-02 1.0000000e-02 0.0000000e+00 
9.0000000e-02 1.0000000e-02 0.0000000e+00 
9.1000000e-02 1.0000000e-02 0.0000000e+00 
9.2000000e-02 1.0000000e-02 0.0000000e+00 
9.3000000e-02 1.0000000e-02 0.0000000e+00 
9.4000000e-02 1.0000000e-02 0.0000000e+00 
9.5000000e-02 1.0000000e-02 0.0000000e+00 
9.6000000e-02 1.0000000e-02 0.0000000e+00 
9.7000000e-02 1.0000000e-02 0.0000000e+00 
9.8000000e-02 1.0000000e-02 0.0000000e+00 
9.9000000e-02 1.0000000e-02 0.0000000e+00 
1.0000000e-01 1.0000000e-02 0.0000000e+00 

CELLS 100 300
2 100 99
2 99 98
2 98 97
2 97 96
2 96 95
2 95 94
2 94 93
2 93 92
2 92 91
2 91 90
2 90 89
2 89 88
2 88 87
2 87 86
2 86 85
2 85 84
2 84 83
2 83 82
2 82 81
2 81 80
2 80 79
2 79 78
2 78 77
2 77 76
2 76 75
2 75 74
2 74 73
2 73 72
2 72 71
2 71 70
2 70 69
2 69 68
2 68 67
2 67 66
2 66 65
2 65 64
2 64 63
2 63 62
2 62 61
2 61 60
2 60 59
2 59 58
2 58 57
2 57 56
2 56 55
2 55 54
2 54 53
2 53 52
2 52 51
2 51 50
2 50 49
2 49 48
2 48 47
2 47 46
2 46 45
2 45 44
2 44 43
2 43 42
2 42 41
2 41 40
2 40 39
2 39 38
2 38 37
2 37 36
2 36 35
2 35 34
2 34 33
2 33 32
2 32 31
2 31 30
2 30 29
2 29 28
2 28 27
2 27 26
2 26 25
2 25 24
2 24 23
2 23 22
2 22 21
2 21 20
2 20 19
2 19 18
2 18 17
2 17 16
2 16 15
2 15 14
2 14 13
2 13 12
2 12 11
2 11 10
2 10 9
2 9 8
2 8 7
2 7 6
2 6 5
2 5 4
2 4 3
2 3 2
2 2 1
2 1 0

CELL_TYPES 100
3
3
3
3
3
3
3
3
3
3
3
3
3
3
3
3
3
3
3
3
3
3
3
3
3
3
3
3
3
3
3
3
3
3
3
3
3
3
3
3
3
3
3
3
3
3
3
3
3
3
3
3
3
3
3
3
3
3
3
3
3
3
3
3
3
3
3
3
3
3
3
3
3
3
3
3
3
3
3
3
3
3
3
3
3
3
3
3
3
3
3
3
3
3
3
3
3
3
3
3
POINT_DATA 101
FIELD FieldData 4
VELOCITY 3 101  float
0.0000000e+00 0.0000000e+00 0.0000000e+00 
0.0000000e+00 0.0000000e+00 0.0000000e+00 
0.0000000e+00 0.0000000e+00 0.0000000e+00 
0.0000000e+00 0.0000000e+00 0.0000000e+00 
0.0000000e+00 0.0000000e+00 0.0000000e+00 
0.0000000e+00 0.0000000e+00 0.0000000e+00 
0.0000000e+00 0.0000000e+00 0.0000000e+00 
0.0000000e+00 0.0000000e+00 0.0000000e+00 
0.0000000e+00 0.0000000e+00 0.0000000e+00 
0.0000000e+00 0.0000000e+00 0.0000000e+00 
0.0000000e+00 0.0000000e+00 0.0000000e+00 
0.0000000e+00 0.0000000e+00 0.0000000e+00 
0.0000000e+00 0.0000000e+00 0.0000000e+00 
0.0000000e+00 0.0000000e+00 0.0000000e+00 
0.0000000e+00 0.0000000e+00 0.0000000e+00 
0.0000000e+00 0.0000000e+00 0.0000000e+00 
0.0000000e+00 0.0000000e+00 0.0000000e+00 
0.0000000e+00 0.0000000e+00 0.0000000e+00 
0.0000000e+00 0.0000000e+00 0.0000000e+00 
0.0000000e+00 0.0000000e+00 0.0000000e+00 
0.0000000e+00 0.0000000e+00 0.0000000e+00 
0.0000000e+00 0.0000000e+00 0.0000000e+00 
0.0000000e+00 0.0000000e+00 0.0000000e+00 
0.0000000e+00 0.0000000e+00 0.0000000e+00 
0.0000000e+00 0.0000000e+00 0.0000000e+00 
0.0000000e+00 0.0000000e+00 0.0000000e+00 
0.0000000e+00 0.0000000e+00 0.0000000e+00 
0.0000000e+00 0.0000000e+00 0.0000000e+00 
0.0000000e+00 0.0000000e+00 0.0000000e+00 
0.0000000e+00 0.0000000e+00 0.0000000e+00 
0.0000000e+00 0.0000000e+00 0.0000000e+00 
0.0000000e+00 0.0000000e+00 0.0000000e+00 
0.0000000e+00 0.0000000e+00 0.0000000e+00 
0.0000000e+00 0.0000000e+00 0.0000000e+00 
0.0000000e+00 0.0000000e+00 0.0000000e+00 
0.0000000e+00 0.0000000e+00 0.0000000e+00 
0.0000000e+00 0.0000000e+00 0.0000000e+00 
0.0000000e+00 0.0000000e+00 0.0000000e+00 
0.0000000e+00 0.0000000e+00 0.0000000e+00 
0.0000000e+00 0.0000000e+00 0.0000000e+00 
0.0000000e+00 0.0000000e+00 0.0000000e+00 
0.0000000e+00 0.0000000e+00 0.0000000e+00 
0.0000000e+00 0.0000000e+00 0.0000000e+00 
0.0000000e+00 0.0000000e+00 0.0000000e+00 
0.0000000e+00 0.0000000e+00 0.0000000e+00 
0.0000000e+00 0.0000000e+00 0.0000000e+00 
0.0000000e+00 0.0000000e+00 0.0000000e+00 
0.0000000e+00 0.0000000e+00 0.0000000e+00 
0.0000000e+00 0.0000000e+00 0.0000000e+00 
0.0000000e+00 0.0000000e+00 0.0000000e+00 
0.0000000e+00 0.0000000e+00 0.0000000e+00 
0.0000000e+00 0.0000000e+00 0.0000000e+00 
0.0000000e+00 0.0000000e+00 0.0000000e+00 
0.0000000e+00 0.0000000e+00 0.0000000e+00 
0.0000000e+00 0.0000000e+00 0.0000000e+00 
0.0000000e+00 0.0000000e+00 0.0000000e+00 
0.0000000e+00 0.0000000e+00 0.0000000e+00 
0.0000000e+00 0.0000000e+00 0.0000000e+00 
0.0000000e+00 0.0000000e+00 0.0000000e+00 
0.0000000e+00 0.0000000e+00 0.0000000e+00 
0.0000000e+00 0.0000000e+00 0.0000000e+00 
0.0000000e+00 0.0000000e+00 0.0000000e+00 
0.0000000e+00 0.0000000e+00 0.0000000e+00 
0.0000000e+00 0.0000000e+00 0.0000000e+00 
0.0000000e+00 0.0000000e+00 0.0000000e+00 
0.0000000e+00 0.0000000e+00 0.0000000e+00 
0.0000000e+00 0.0000000e+00 0.0000000e+00 
0.0000000e+00 0.0000000e+00 0.0000000e+00 
0.0000000e+00 0.0000000e+00 0.0000000e+00 
0.0000000e+00 0.0000000e+00 0.0000000e+00 
0.0000000e+00 0.0000000e+00 0.0000000e+00 
0.0000000e+00 0.0000000e+00 0.0000000e+00 
0.0000000e+00 0.0000000e+00 0.0000000e+00 
0.0000000e+00 0.0000000e+00 0.0000000e+00 
0.0000000e+00 0.0000000e+00 0.0000000e+00 
0.0000000e+00 0.0000000e+00 0.0000000e+00 
0.0000000e+00 0.0000000e+00 0.0000000e+00 
0.0000000e+00 0.0000000e+00 0.0000000e+00 
0.0000000e+00 0.0000000e+00 0.0000000e+00 
0.0000000e+00 0.0000000e+00 0.0000000e+00 
0.0000000e+00 0.0000000e+00 0.0000000e+00 
0.0000000e+00 0.0000000e+00 0.0000000e+00 
0.0000000e+00 0.0000000e+00 0.0000000e+00 
0.0000000e+00 0.0000000e+00 0.0000000e+00 
0.0000000e+00 0.0000000e+00 0.0000000e+00 
0.0000000e+00 0.0000000e+00 0.0000000e+00 
0.0000000e+00 0.0000000e+00 0.0000000e+00 
0.0000000e+00 0.0000000e+00 0.0000000e+00 
0.0000000e+00 0.0000000e+00 0.0000000e+00 
0.0000000e+00 0.0000000e+00 0.0000000e+00 
0.0000000e+00 0.0000000e+00 0.0000000e+00 
0.0000000e+00 0.0000000e+00 0.0000000e+00 
0.0000000e+00 0.0000000e+00 0.0000000e+00 
0.0000000e+00 0.0000000e+00 0.0000000e+00 
0.0000000e+00 0.0000000e+00 0.0000000e+00 
0.0000000e+00 0.0000000e+00 0.0000000e+00 
0.0000000e+00 0.0000000e+00 0.0000000e+00 
0.0000000e+00 0.0000000e+00 0.0000000e+00 
0.0000000e+00 0.0000000e+00 0.0000000e+00 
0.0000000e+00 0.0000000e+00 0.0000000e+00 
0.0000000e+00 0.0000000e+00 0.0000000e+00 
PRESSURE 1 101  float
0.0000000e+00
0.0000000e+00
0.0000000e+00
0.0000000e+00
0.0000000e+00
0.0000000e+00
0.0000000e+00
0.0000000e+00
0.0000000e+00
0.0000000e+00
0.0000000e+00
0.0000000e+00
0.0000000e+00
0.0000000e+00
0.0000000e+00
0.0000000e+00
0.0000000e+00
0.0000000e+00
0.0000000e+00
0.0000000e+00
0.0000000e+00
0.0000000e+00
0.0000000e+00
0.0000000e+00
0.0000000e+00
0.0000000e+00
0.0000000e+00
0.0000000e+00
0.0000000e+00
0.0000000e+00
0.0000000e+00
0.0000000e+00
0.0000000e+00
0.0000000e+00
0.0000000e+00
0.0000000e+00
0.0000000e+00
0.0000000e+00
0.0000000e+00
0.0000000e+00
0.0000000e+00
0.0000000e+00
0.0000000e+00
0.0000000e+00
0.0000000e+00
0.0000000e+00
0.0000000e+00
0.0000000e+00
0.0000000e+00
0.0000000e+00
0.0000000e+00
0.0000000e+00
0.0000000e+00
0.0000000e+00
0.0000000e+00
0.0000000e+00
0.0000000e+00
0.0000000e+00
0.0000000e+00
0.0000000e+00
0.0000000e+00
0.0000000e+00
0.0000000e+00
0.0000000e+00
0.0000000e+00
0.0000000e+00
0.0000000e+00
0.0000000e+00
0.0000000e+00
0.0000000e+00
0.0000000e+00
0.0000000e+00
0.0000000e+00
0.0000000e+00
0.0000000e+00
0.0000000e+00
0.0000000e+00
0.0000000e+00
0.0000000e+00
0.0000000e+00
0.0000000e+00
0.0000000e+00
0.0000000e+00
0.0000000e+00
0.0000000e+00
0.0000000e+00
0.0000000e+00
0.0000000e+00
0.0000000e+00
0.0000000e+00
0.0000000e+00
0.0000000e+00
0.0000000e+00
0.0000000e+00
0.0000000e+00
0.0000000e+00
0.0000000e+00
0.0000000e+00
0.0000000e+00
0.0000000e+00
0.0000000e+00
TIME_AVERAGED_VELOCITY 3 101  float
0.0000000e+00 0.0000000e+00 0.0000000e+00 
0.0000000e+00 0.0000000e+00 0.0000000e+00 
0.0000000e+00 0.0000000e+00 0.0000000e+00 
0.0000000e+00 0.0000000e+00 0.0000000e+00 
0.0000000e+00 0.0000000e+00 0.0000000e+00 
0.0000000e+00 0.0000000e+00 0.0000000e+00 
0.0000000e+00 0.0000000e+00 0.0000000e+00 
0.0000000e+00 0.0000000e+00 0.0000000e+00 
0.0000000e+00 0.0000000e+00 0.0000000e+00 
0.0000000e+00 0.0000000e+00 0.0000000e+00 
0.0000000e+00 0.0000000e+00 0.0000000e+00 
0.0000000e+00 0.0000000e+00 0.0000000e+00 
0.0000000e+00 0.0000000e+00 0.0000000e+00 
0.0000000e+00 0.0000000e+00 0.0000000e+00 
0.0000000e+00 0.0000000e+00 0.0000000e+00 
0.0000000e+00 0.0000000e+00 0.0000000e+00 
0.0000000e+00 0.0000000e+00 0.0000000e+00 
0.0000000e+00 0.0000000e+00 0.0000000e+00 
0.0000000e+00 0.0000000e+00 0.0000000e+00 
0.0000000e+00 0.0000000e+00 0.0000000e+00 
0.0000000e+00 0.0000000e+00 0.0000000e+00 
0.0000000e+00 0.0000000e+00 0.0000000e+00 
0.0000000e+00 0.0000000e+00 0.0000000e+00 
0.0000000e+00 0.0000000e+00 0.0000000e+00 
0.0000000e+00 0.0000000e+00 0.0000000e+00 
0.0000000e+00 0.0000000e+00 0.0000000e+00 
0.0000000e+00 0.0000000e+00 0.0000000e+00 
0.0000000e+00 0.0000000e+00 0.0000000e+00 
0.0000000e+00 0.0000000e+00 0.0000000e+00 
0.0000000e+00 0.0000000e+00 0.0000000e+00 
0.0000000e+00 0.0000000e+00 0.0000000e+00 
0.0000000e+00 0.0000000e+00 0.0000000e+00 
0.0000000e+00 0.0000000e+00 0.0000000e+00 
0.0000000e+00 0.0000000e+00 0.0000000e+00 
0.0000000e+00 0.0000000e+00 0.0000000e+00 
0.0000000e+00 0.0000000e+00 0.0000000e+00 
0.0000000e+00 0.0000000e+00 0.0000000e+00 
0.0000000e+00 0.0000000e+00 0.0000000e+00 
0.0000000e+00 0.0000000e+00 0.0000000e+00 
0.0000000e+00 0.0000000e+00 0.0000000e+00 
0.0000000e+00 0.0000000e+00 0.0000000e+00 
0.0000000e+00 0.0000000e+00 0.0000000e+00 
0.0000000e+00 0.0000000e+00 0.0000000e+00 
0.0000000e+00 0.0000000e+00 0.0000000e+00 
0.0000000e+00 0.0000000e+00 0.0000000e+00 
0.0000000e+00 0.0000000e+00 0.0000000e+00 
0.0000000e+00 0.0000000e+00 0.0000000e+00 
0.0000000e+00 0.0000000e+00 0.0000000e+00 
0.0000000e+00 0.0000000e+00 0.0000000e+00 
0.0000000e+00 0.0000000e+00 0.0000000e+00 
0.0000000e+00 0.0000000e+00 0.0000000e+00 
0.0000000e+00 0.0000000e+00 0.0000000e+00 
0.0000000e+00 0.0000000e+00 0.0000000e+00 
0.0000000e+00 0.0000000e+00 0.0000000e+00 
0.0000000e+00 0.0000000e+00 0.0000000e+00 
0.0000000e+00 0.0000000e+00 0.0000000e+00 
0.0000000e+00 0.0000000e+00 0.0000000e+00 
0.0000000e+00 0.0000000e+00 0.0000000e+00 
0.0000000e+00 0.0000000e+00 0.0000000e+00 
0.0000000e+00 0.0000000e+00 0.0000000e+00 
0.0000000e+00 0.0000000e+00 0.0000000e+00 
0.0000000e+00 0.0000000e+00 0.0000000e+00 
0.0000000e+00 0.0000000e+00 0.0000000e+00 
0.0000000e+00 0.0000000e+00 0.0000000e+00 
0.0000000e+00 0.0000000e+00 0.0000000e+00 
0.0000000e+00 0.0000000e+00 0.0000000e+00 
0.0000000e+00 0.0000000e+00 0.0000000e+00 
0.0000000e+00 0.0000000e+00 0.0000000e+00 
0.0000000e+00 0.0000000e+00 0.0000000e+00 
0.0000000e+00 0.0000000e+00 0.0000000e+00 
0.0000000e+00 0.0000000e+00 0.0000000e+00 
0.0000000e+00 0.0000000e+00 0.0000000e+00 
0.0000000e+00 0.0000000e+00 0.0000000e+00 
0.0000000e+00 0.0000000e+00 0.0000000e+00 
0.0000000e+00 0.0000000e+00 0.0000000e+00 
0.0000000e+00 0.0000000e+00 0.0000000e+00 
0.0000000e+00 0.0000000e+00 0.0000000e+00 
0.0000000e+00 0.0000000e+00 0.0000000e+00 
0.0000000e+00 0.0000000e+00 0.0000000e+00 
0.0000000e+00 0.0000000e+00 0.0000000e+00 
0.0000000e+00 0.0000000e+00 0.0000000e+00 
0.0000000e+00 0.0000000e+00 0.0000000e+00 
0.0000000e+00 0.0000000e+00 0.0000000e+00 
0.0000000e+00 0.0000000e+00 0.0000000e+00 
0.0000000e+00 0.0000000e+00 0.0000000e+00 
0.0000000e+00 0.0000000e+00 0.0000000e+00 
0.0000000e+00 0.0000000e+00 0.0000000e+00 
0.0000000e+00 0.0000000e+00 0.0000000e+00 
0.0000000e+00 0.0000000e+00 0.0000000e+00 
0.0000000e+00 0.0000000e+00 0.0000000e+00 
0.0000000e+00 0.0000000e+00 0.0000000e+00 
0.0000000e+00 0.0000000e+00 0.0000000e+00 
0.0000000e+00 0.0000000e+00 0.0000000e+00 
0.0000000e+00 0.0000000e+00 0.0000000e+00 
0.0000000e+00 0.0000000e+00 0.0000000e+00 
0.0000000e+00 0.0000000e+00 0.0000000e+00 
0.0000000e+00 0.0000000e+00 0.0000000e+00 
0.0000000e+00 0.0000000e+00 0.0000000e+00 
0.0000000e+00 0.0000000e+00 0.0000000e+00 
0.0000000e+00 0.0000000e+00 0.0000000e+00 
0.0000000e+00 0.0000000e+00 0.0000000e+00 
TIME_AVERAGED_PRESSURE 1 101  float
0.0000000e+00
0.0000000e+00
0.0000000e+00
0.0000000e+00
0.0000000e+00
0.0000000e+00
0.0000000e+00
0.0000000e+00
0.0000000e+00
0.0000000e+00
0.0000000e+00
0.0000000e+00
0.0000000e+00
0.0000000e+00
0.0000000e+00
0.0000000e+00
0.0000000e+00
0.0000000e+00
0.0000000e+00
0.0000000e+00
0.0000000e+00
0.0000000e+00
0.0000000e+00
0.0000000e+00
0.0000000e+00
0.0000000e+00
0.0000000e+00
0.0000000e+00
0.0000000e+00
0.0000000e+00
0.0000000e+00
0.0000000e+00
0.0000000e+00
0.0000000e+00
0.0000000e+00
0.0000000e+00
0.0000000e+00
0.0000000e+00
0.0000000e+00
0.0000000e+00
0.0000000e+00
0.0000000e+00
0.0000000e+00
0.0000000e+00
0.0000000e+00
0.0000000e+00
0.0000000e+00
0.0000000e+00
0.0000000e+00
0.0000000e+00
0.0000000e+00
0.0000000e+00
0.0000000e+00
0.0000000e+00
0.0000000e+00
0.0000000e+00
0.0000000e+00
0.0000000e+00
0.0000000e+00
0.0000000e+00
0.0000000e+00
0.0000000e+00
0.0000000e+00
0.0000000e+00
0.0000000e+00
0.0000000e+00
0.0000000e+00
0.0000000e+00
0.0000000e+00
0.0000000e+00
0.0000000e+00
0.0000000e+00
0.0000000e+00
0.0000000e+00
0.0000000e+00
0.0000000e+00
0.0000000e+00
0.0000000e+00
0.0000000e+00
0.0000000e+00
0.0000000e+00
0.0000000e+00
0.0000000e+00
0.0000000e+00
0.0000000e+00
0.0000000e+00
0.0000000e+00
0.0000000e+00
0.0000000e+00
0.0000000e+00
0.0000000e+00
0.0000000e+00
0.0000000e+00
0.0000000e+00
0.0000000e+00
0.0000000e+00
0.0000000e+00
0.0000000e+00
0.0000000e+00
0.0000000e+00
0.0000000e+00
CELL_DATA 100
FIELD FieldData 0
