# vtk DataFile Version 4.0
vtk output
ASCII
DATASET UNSTRUCTURED_GRID
POINTS 6 float
0.0000000e+00 1.0000000e-02 0.0000000e+00 
0.0000000e+00 9.0000000e-03 0.0000000e+00 
0.0000000e+00 8.0000000e-03 0.0000000e+00 
0.0000000e+00 7.0000000e-03 0.0000000e+00 
0.0000000e+00 6.0000000e-03 0.0000000e+00 
0.0000000e+00 5.0000000e-03 0.0000000e+00 

CELLS 5 15
2 0 1
2 1 2
2 2 3
2 3 4
2 4 5

CELL_TYPES 5
3
3
3
3
3
POINT_DATA 6
FIELD FieldData 4
VELOCITY 3 6  float
0.0000000e+00 0.0000000e+00 0.0000000e+00 
1.0000000e-02 -0.0000000e+00 -0.0000000e+00 
1.0000000e-02 -0.0000000e+00 -0.0000000e+00 
1.0000000e-02 -0.0000000e+00 -0.0000000e+00 
1.0000000e-02 -0.0000000e+00 -0.0000000e+00 
0.0000000e+00 0.0000000e+00 0.0000000e+00 
PRESSURE 1 6  float
0.0000000e+00
0.0000000e+00
0.0000000e+00
0.0000000e+00
0.0000000e+00
0.0000000e+00
TIME_AVERAGED_VELOCITY 3 6  float
0.0000000e+00 0.0000000e+00 0.0000000e+00 
0.0000000e+00 0.0000000e+00 0.0000000e+00 
0.0000000e+00 0.0000000e+00 0.0000000e+00 
0.0000000e+00 0.0000000e+00 0.0000000e+00 
0.0000000e+00 0.0000000e+00 0.0000000e+00 
0.0000000e+00 0.0000000e+00 0.0000000e+00 
TIME_AVERAGED_PRESSURE 1 6  float
0.0000000e+00
0.0000000e+00
0.0000000e+00
0.0000000e+00
0.0000000e+00
0.0000000e+00
CELL_DATA 5
FIELD FieldData 0
