# vtk DataFile Version 4.0
vtk output
ASCII
DATASET UNSTRUCTURED_GRID
POINTS 11 float
1.0000000e-01 1.0000000e-02 0.0000000e+00 
1.0000000e-01 9.0000000e-03 0.0000000e+00 
1.0000000e-01 8.0000000e-03 0.0000000e+00 
1.0000000e-01 7.0000000e-03 0.0000000e+00 
1.0000000e-01 6.0000000e-03 0.0000000e+00 
1.0000000e-01 5.0000000e-03 0.0000000e+00 
1.0000000e-01 4.0000000e-03 0.0000000e+00 
1.0000000e-01 3.0000000e-03 0.0000000e+00 
1.0000000e-01 2.0000000e-03 0.0000000e+00 
1.0000000e-01 1.0000000e-03 0.0000000e+00 
1.0000000e-01 0.0000000e+00 0.0000000e+00 

CELLS 10 30
2 10 9
2 9 8
2 8 7
2 7 6
2 6 5
2 5 4
2 4 3
2 3 2
2 2 1
2 1 0

CELL_TYPES 10
3
3
3
3
3
3
3
3
3
3
POINT_DATA 11
FIELD FieldData 4
VELOCITY 3 11  float
0.0000000e+00 0.0000000e+00 0.0000000e+00 
0.0000000e+00 0.0000000e+00 0.0000000e+00 
0.0000000e+00 0.0000000e+00 0.0000000e+00 
0.0000000e+00 0.0000000e+00 0.0000000e+00 
0.0000000e+00 0.0000000e+00 0.0000000e+00 
0.0000000e+00 0.0000000e+00 0.0000000e+00 
0.0000000e+00 0.0000000e+00 0.0000000e+00 
0.0000000e+00 0.0000000e+00 0.0000000e+00 
0.0000000e+00 0.0000000e+00 0.0000000e+00 
0.0000000e+00 0.0000000e+00 0.0000000e+00 
0.0000000e+00 0.0000000e+00 0.0000000e+00 
PRESSURE 1 11  float
0.0000000e+00
0.0000000e+00
0.0000000e+00
0.0000000e+00
0.0000000e+00
0.0000000e+00
0.0000000e+00
0.0000000e+00
0.0000000e+00
0.0000000e+00
0.0000000e+00
TIME_AVERAGED_VELOCITY 3 11  float
0.0000000e+00 0.0000000e+00 0.0000000e+00 
0.0000000e+00 0.0000000e+00 0.0000000e+00 
0.0000000e+00 0.0000000e+00 0.0000000e+00 
0.0000000e+00 0.0000000e+00 0.0000000e+00 
0.0000000e+00 0.0000000e+00 0.0000000e+00 
0.0000000e+00 0.0000000e+00 0.0000000e+00 
0.0000000e+00 0.0000000e+00 0.0000000e+00 
0.0000000e+00 0.0000000e+00 0.0000000e+00 
0.0000000e+00 0.0000000e+00 0.0000000e+00 
0.0000000e+00 0.0000000e+00 0.0000000e+00 
0.0000000e+00 0.0000000e+00 0.0000000e+00 
TIME_AVERAGED_PRESSURE 1 11  float
0.0000000e+00
0.0000000e+00
0.0000000e+00
0.0000000e+00
0.0000000e+00
0.0000000e+00
0.0000000e+00
0.0000000e+00
0.0000000e+00
0.0000000e+00
0.0000000e+00
CELL_DATA 10
FIELD FieldData 0
