# vtk DataFile Version 4.0
vtk output
ASCII
DATASET UNSTRUCTURED_GRID
POINTS 4 float
-2.70703132e-03 9.87500000e+00 0.00000000e+00 
-2.70703132e-03 1.01250000e+01 0.00000000e+00 
2.70703132e-03 9.87500000e+00 0.00000000e+00 
2.70703132e-03 1.01250000e+01 0.00000000e+00 

CELLS 4 8
1 0
1 1
1 2
1 3

CELL_TYPES 4
1
1
1
1
POINT_DATA 4
FIELD FieldData 3
MP_DISPLACEMENT 3 4  float
1.80000007e-01 4.00000000e+00 1.00000000e+00 
1.80000007e-01 4.00000000e+00 1.00000000e+00 
1.80000007e-01 4.00000000e+00 1.00000000e+00 
1.80000007e-01 4.00000000e+00 1.00000000e+00 
MP_DENSITY 1 4  float
8.00000012e-01
8.00000012e-01
8.00000012e-01
8.00000012e-01
BOUNDARY 1 4  float
-1.00000000e+00
-1.00000000e+00
-1.00000000e+00
-1.00000000e+00
