# vtk DataFile Version 4.0
vtk output
ASCII
DATASET UNSTRUCTURED_GRID
POINTS 20 float
0.00000000e+00 1.00000000e+00 1.00000000e+00 
0.00000000e+00 1.00000000e+00 5.00000000e-01 
5.00000000e-01 1.00000000e+00 1.00000000e+00 
0.00000000e+00 5.00000000e-01 1.00000000e+00 
0.00000000e+00 0.00000000e+00 1.00000000e+00 
1.00000000e+00 1.00000000e+00 1.00000000e+00 
0.00000000e+00 1.00000000e+00 0.00000000e+00 
1.00000000e+00 5.00000000e-01 1.00000000e+00 
1.00000000e+00 1.00000000e+00 5.00000000e-01 
0.00000000e+00 0.00000000e+00 5.00000000e-01 
5.00000000e-01 1.00000000e+00 0.00000000e+00 
0.00000000e+00 5.00000000e-01 0.00000000e+00 
5.00000000e-01 0.00000000e+00 1.00000000e+00 
1.00000000e+00 1.00000000e+00 0.00000000e+00 
1.00000000e+00 0.00000000e+00 1.00000000e+00 
0.00000000e+00 0.00000000e+00 0.00000000e+00 
5.00000000e-01 0.00000000e+00 0.00000000e+00 
1.00000000e+00 5.00000000e-01 0.00000000e+00 
1.00000000e+00 0.00000000e+00 5.00000000e-01 
1.00000000e+00 0.00000000e+00 0.00000000e+00 

CELLS 1 21
20 5 0 6 13 14 4 15 19 2 1 10 8 12 9 16 18 7 3 11 17

CELL_TYPES 1
25
POINT_DATA 20
FIELD FieldData 4
PRESSURE 1 20  float
0.00000000e+00
0.00000000e+00
1.51600003e+00
0.00000000e+00
0.00000000e+00
3.03200006e+00
0.00000000e+00
3.03200006e+00
3.03200006e+00
0.00000000e+00
1.51600003e+00
0.00000000e+00
1.51600003e+00
3.03200006e+00
3.03200006e+00
0.00000000e+00
1.51600003e+00
3.03200006e+00
3.03200006e+00
3.03200006e+00
DISPLACEMENT 3 20  float
0.00000000e+00 1.00000000e+00 4.00000000e+00 
0.00000000e+00 1.00000000e+00 2.00000000e+00 
3.79000008e-01 1.00000000e+00 4.00000000e+00 
0.00000000e+00 5.00000000e-01 4.00000000e+00 
0.00000000e+00 0.00000000e+00 4.00000000e+00 
7.58000016e-01 1.00000000e+00 4.00000000e+00 
0.00000000e+00 1.00000000e+00 0.00000000e+00 
7.58000016e-01 5.00000000e-01 4.00000000e+00 
7.58000016e-01 1.00000000e+00 2.00000000e+00 
0.00000000e+00 0.00000000e+00 2.00000000e+00 
3.79000008e-01 1.00000000e+00 0.00000000e+00 
0.00000000e+00 5.00000000e-01 0.00000000e+00 
3.79000008e-01 0.00000000e+00 4.00000000e+00 
7.58000016e-01 1.00000000e+00 0.00000000e+00 
7.58000016e-01 0.00000000e+00 4.00000000e+00 
0.00000000e+00 0.00000000e+00 0.00000000e+00 
3.79000008e-01 0.00000000e+00 0.00000000e+00 
7.58000016e-01 5.00000000e-01 0.00000000e+00 
7.58000016e-01 0.00000000e+00 2.00000000e+00 
7.58000016e-01 0.00000000e+00 0.00000000e+00 
VELOCITY 3 20  float
0.00000000e+00 2.00000000e+00 2.00000000e+00 
0.00000000e+00 2.00000000e+00 1.00000000e+00 
1.00000000e+00 2.00000000e+00 2.00000000e+00 
0.00000000e+00 1.00000000e+00 2.00000000e+00 
0.00000000e+00 0.00000000e+00 2.00000000e+00 
2.00000000e+00 2.00000000e+00 2.00000000e+00 
0.00000000e+00 2.00000000e+00 0.00000000e+00 
2.00000000e+00 1.00000000e+00 2.00000000e+00 
2.00000000e+00 2.00000000e+00 1.00000000e+00 
0.00000000e+00 0.00000000e+00 1.00000000e+00 
1.00000000e+00 2.00000000e+00 0.00000000e+00 
0.00000000e+00 1.00000000e+00 0.00000000e+00 
1.00000000e+00 0.00000000e+00 2.00000000e+00 
2.00000000e+00 2.00000000e+00 0.00000000e+00 
2.00000000e+00 0.00000000e+00 2.00000000e+00 
0.00000000e+00 0.00000000e+00 0.00000000e+00 
1.00000000e+00 0.00000000e+00 0.00000000e+00 
2.00000000e+00 1.00000000e+00 0.00000000e+00 
2.00000000e+00 0.00000000e+00 1.00000000e+00 
2.00000000e+00 0.00000000e+00 0.00000000e+00 
BOUNDARY 1 20  float
-1.00000000e+00
-1.00000000e+00
-1.00000000e+00
-1.00000000e+00
-1.00000000e+00
-1.00000000e+00
-1.00000000e+00
-1.00000000e+00
-1.00000000e+00
-1.00000000e+00
-1.00000000e+00
-1.00000000e+00
-1.00000000e+00
-1.00000000e+00
-1.00000000e+00
-1.00000000e+00
-1.00000000e+00
-1.00000000e+00
-1.00000000e+00
-1.00000000e+00
CELL_DATA 1
FIELD FieldData 1
DETERMINANT 3 1  float
0.00000000e+00 7.58000016e-01 3.03200006e+00 
