# vtk DataFile Version 4.0
vtk output
ASCII
DATASET UNSTRUCTURED_GRID
POINTS 34 float
1.00000000e+00 0.00000000e+00 1.00000000e+00 
5.00000000e-01 0.00000000e+00 1.00000000e+00 
1.00000000e+00 5.00000000e-01 1.00000000e+00 
1.00000000e+00 0.00000000e+00 5.00000000e-01 
5.00000000e-01 0.00000000e+00 5.00000000e-01 
1.00000000e+00 5.00000000e-01 5.00000000e-01 
5.00000000e-01 5.00000000e-01 1.00000000e+00 
5.00000000e-01 5.00000000e-01 5.00000000e-01 
2.01924605e-01 3.95916031e-01 6.93066895e-01 
7.01924606e-01 8.95916031e-01 6.93066895e-01 
1.00000000e+00 0.00000000e+00 0.00000000e+00 
0.00000000e+00 0.00000000e+00 1.00000000e+00 
1.00000000e+00 1.00000000e+00 1.00000000e+00 
5.00000000e-01 0.00000000e+00 0.00000000e+00 
1.00000000e+00 5.00000000e-01 0.00000000e+00 
5.00000000e-01 1.00000000e+00 1.00000000e+00 
0.00000000e+00 5.00000000e-01 1.00000000e+00 
0.00000000e+00 0.00000000e+00 5.00000000e-01 
1.00000000e+00 1.00000000e+00 5.00000000e-01 
4.03849211e-01 7.91832061e-01 3.86133790e-01 
2.01924605e-01 3.95916031e-01 1.93066895e-01 
5.00000000e-01 5.00000000e-01 0.00000000e+00 
5.00000000e-01 1.00000000e+00 5.00000000e-01 
0.00000000e+00 5.00000000e-01 5.00000000e-01 
2.01924605e-01 8.95916031e-01 6.93066895e-01 
7.01924606e-01 8.95916031e-01 1.93066895e-01 
0.00000000e+00 0.00000000e+00 0.00000000e+00 
1.00000000e+00 1.00000000e+00 0.00000000e+00 
0.00000000e+00 1.00000000e+00 1.00000000e+00 
2.01924605e-01 8.95916031e-01 1.93066895e-01 
5.00000000e-01 1.00000000e+00 0.00000000e+00 
0.00000000e+00 5.00000000e-01 0.00000000e+00 
0.00000000e+00 1.00000000e+00 5.00000000e-01 
0.00000000e+00 1.00000000e+00 0.00000000e+00 

CELLS 11 121
10 26 10 27 12 13 14 21 7 5 18
10 33 11 26 19 23 17 31 29 8 20
10 26 33 19 27 31 29 20 21 30 25
10 33 19 27 28 29 25 30 32 24 22
10 33 19 28 11 29 24 32 23 8 16
10 19 26 27 12 20 21 25 9 7 18
10 27 19 12 28 25 9 18 22 24 15
10 19 12 28 11 9 15 24 8 6 16
10 26 0 10 12 4 3 13 7 2 5
10 11 12 0 26 6 2 1 17 7 4
10 11 26 19 12 17 20 8 6 7 9

CELL_TYPES 11
24
24
24
24
24
24
24
24
24
24
24
POINT_DATA 34
FIELD FieldData 4
PRESSURE 1 34  float
7.16000021e-01
3.58000010e-01
7.16000021e-01
7.16000021e-01
3.58000010e-01
7.16000021e-01
3.58000010e-01
3.58000010e-01
1.44578025e-01
5.02578020e-01
7.16000021e-01
0.00000000e+00
7.16000021e-01
3.58000010e-01
7.16000021e-01
3.58000010e-01
0.00000000e+00
0.00000000e+00
7.16000021e-01
2.89156049e-01
1.44578025e-01
3.58000010e-01
3.58000010e-01
0.00000000e+00
1.44578025e-01
5.02578020e-01
0.00000000e+00
7.16000021e-01
0.00000000e+00
1.44578025e-01
3.58000010e-01
0.00000000e+00
0.00000000e+00
0.00000000e+00
DISPLACEMENT 3 34  float
3.58000000e-01 0.00000000e+00 2.00000000e+00 
1.79000000e-01 0.00000000e+00 2.00000000e+00 
3.58000000e-01 5.00000000e-01 2.00000000e+00 
3.58000000e-01 0.00000000e+00 1.00000000e+00 
1.79000000e-01 0.00000000e+00 1.00000000e+00 
3.58000000e-01 5.00000000e-01 1.00000000e+00 
1.79000000e-01 5.00000000e-01 2.00000000e+00 
1.79000000e-01 5.00000000e-01 1.00000000e+00 
7.22890088e-02 3.95916031e-01 1.38613379e+00 
2.51289009e-01 8.95916031e-01 1.38613379e+00 
3.58000000e-01 0.00000000e+00 0.00000000e+00 
0.00000000e+00 0.00000000e+00 2.00000000e+00 
3.58000000e-01 1.00000000e+00 2.00000000e+00 
1.79000000e-01 0.00000000e+00 0.00000000e+00 
3.58000000e-01 5.00000000e-01 0.00000000e+00 
1.79000000e-01 1.00000000e+00 2.00000000e+00 
0.00000000e+00 5.00000000e-01 2.00000000e+00 
0.00000000e+00 0.00000000e+00 1.00000000e+00 
3.58000000e-01 1.00000000e+00 1.00000000e+00 
1.44578018e-01 7.91832061e-01 7.72267579e-01 
7.22890088e-02 3.95916031e-01 3.86133790e-01 
1.79000000e-01 5.00000000e-01 0.00000000e+00 
1.79000000e-01 1.00000000e+00 1.00000000e+00 
0.00000000e+00 5.00000000e-01 1.00000000e+00 
7.22890088e-02 8.95916031e-01 1.38613379e+00 
2.51289009e-01 8.95916031e-01 3.86133790e-01 
0.00000000e+00 0.00000000e+00 0.00000000e+00 
3.58000000e-01 1.00000000e+00 0.00000000e+00 
0.00000000e+00 1.00000000e+00 2.00000000e+00 
7.22890088e-02 8.95916031e-01 3.86133790e-01 
1.79000000e-01 1.00000000e+00 0.00000000e+00 
0.00000000e+00 5.00000000e-01 0.00000000e+00 
0.00000000e+00 1.00000000e+00 1.00000000e+00 
0.00000000e+00 1.00000000e+00 0.00000000e+00 
VELOCITY 3 34  float
2.00000000e+00 0.00000000e+00 2.00000000e+00 
1.00000000e+00 0.00000000e+00 2.00000000e+00 
2.00000000e+00 1.00000000e+00 2.00000000e+00 
2.00000000e+00 0.00000000e+00 1.00000000e+00 
1.00000000e+00 0.00000000e+00 1.00000000e+00 
2.00000000e+00 1.00000000e+00 1.00000000e+00 
1.00000000e+00 1.00000000e+00 2.00000000e+00 
1.00000000e+00 1.00000000e+00 1.00000000e+00 
4.03849211e-01 7.91832061e-01 1.38613379e+00 
1.40384921e+00 1.79183206e+00 1.38613379e+00 
2.00000000e+00 0.00000000e+00 0.00000000e+00 
0.00000000e+00 0.00000000e+00 2.00000000e+00 
2.00000000e+00 2.00000000e+00 2.00000000e+00 
1.00000000e+00 0.00000000e+00 0.00000000e+00 
2.00000000e+00 1.00000000e+00 0.00000000e+00 
1.00000000e+00 2.00000000e+00 2.00000000e+00 
0.00000000e+00 1.00000000e+00 2.00000000e+00 
0.00000000e+00 0.00000000e+00 1.00000000e+00 
2.00000000e+00 2.00000000e+00 1.00000000e+00 
8.07698422e-01 1.58366412e+00 7.72267579e-01 
4.03849211e-01 7.91832061e-01 3.86133790e-01 
1.00000000e+00 1.00000000e+00 0.00000000e+00 
1.00000000e+00 2.00000000e+00 1.00000000e+00 
0.00000000e+00 1.00000000e+00 1.00000000e+00 
4.03849211e-01 1.79183206e+00 1.38613379e+00 
1.40384921e+00 1.79183206e+00 3.86133790e-01 
0.00000000e+00 0.00000000e+00 0.00000000e+00 
2.00000000e+00 2.00000000e+00 0.00000000e+00 
0.00000000e+00 2.00000000e+00 2.00000000e+00 
4.03849211e-01 1.79183206e+00 3.86133790e-01 
1.00000000e+00 2.00000000e+00 0.00000000e+00 
0.00000000e+00 1.00000000e+00 0.00000000e+00 
0.00000000e+00 2.00000000e+00 1.00000000e+00 
0.00000000e+00 2.00000000e+00 0.00000000e+00 
BOUNDARY 1 34  float
-1.00000000e+00
-1.00000000e+00
-1.00000000e+00
-1.00000000e+00
-1.00000000e+00
-1.00000000e+00
-1.00000000e+00
-1.00000000e+00
-1.00000000e+00
-1.00000000e+00
-1.00000000e+00
-1.00000000e+00
-1.00000000e+00
-1.00000000e+00
-1.00000000e+00
-1.00000000e+00
-1.00000000e+00
-1.00000000e+00
-1.00000000e+00
-1.00000000e+00
-1.00000000e+00
-1.00000000e+00
-1.00000000e+00
-1.00000000e+00
-1.00000000e+00
-1.00000000e+00
-1.00000000e+00
-1.00000000e+00
-1.00000000e+00
-1.00000000e+00
-1.00000000e+00
-1.00000000e+00
-1.00000000e+00
-1.00000000e+00
CELL_DATA 11
FIELD FieldData 1
DETERMINANT 3 11  float
0.00000000e+00 3.58000000e-01 7.16000000e-01 
1.89000000e-01 3.58000000e-01 7.16000000e-01 
3.78000000e-01 3.58000000e-01 7.16000000e-01 
5.67000000e-01 3.58000000e-01 7.16000000e-01 
7.56000000e-01 3.58000000e-01 7.16000000e-01 
9.45000000e-01 3.58000000e-01 7.16000000e-01 
1.13400000e+00 3.58000000e-01 7.16000000e-01 
1.32300000e+00 3.58000000e-01 7.16000000e-01 
1.51200000e+00 3.58000000e-01 7.16000000e-01 
1.70100000e+00 3.58000000e-01 7.16000000e-01 
1.89000000e+00 3.58000000e-01 7.16000000e-01 
