<?xml version="1.0"?>
<VTKFile byte_order="LittleEndian" type="UnstructuredGrid" version="0.1">
   <UnstructuredGrid>
      <Piece NumberOfCells="4" NumberOfPoints="10">
         <Points>
            <DataArray Name="Position" NumberOfComponents="3" format="ascii" type="Float64">
              0.000000000e+00  1.000000000e+00  1.000000000e+00  0.000000000e+00  1.000000000e+00  0.000000000e+00  0.000000000e+00  0.000000000e+00  1.000000000e+00  1.000000000e+00  1.000000000e+00  1.000000000e+00  0.000000000e+00  0.000000000e+00  0.000000000e+00  1.000000000e+00  0.000000000e+00  0.000000000e+00  2.000000000e+00  1.000000000e+00  1.000000000e+00  2.000000000e+00  1.000000000e+00  0.000000000e+00  2.000000000e+00  0.000000000e+00  1.000000000e+00  2.000000000e+00  0.000000000e+00  0.000000000e+00
            </DataArray>
         </Points>
         <Cells>
            <DataArray Name="connectivity" NumberOfComponents="1" format="ascii" type="Int32">
              0  1  2  2  3  4  7  8  9  5  6  7
            </DataArray>
            <DataArray Name="offsets" NumberOfComponents="1" format="ascii" type="Int32">
              3  6  9  12
            </DataArray>
            <DataArray Name="types" NumberOfComponents="1" format="ascii" type="UInt8">
              5  5  5  5
            </DataArray>
         </Cells>
         <PointData/>
         <CellData>
            <DataArray Name="DENSITY" NumberOfComponents="1" format="ascii" type="Float64">
              0.000000000e+00  4.362000000e+00  8.724000000e+00  1.308600000e+01
            </DataArray>
            <DataArray Name="YOUNG_MODULUS" NumberOfComponents="1" format="ascii" type="Float64">
              0.000000000e+00  5.326000000e+00  1.065200000e+01  1.597800000e+01
            </DataArray>
            <DataArray Name="KRATOS_ID" NumberOfComponents="1" format="ascii" type="Int32">
              1  2  3  4
            </DataArray>
         </CellData>
      </Piece>
   </UnstructuredGrid>
</VTKFile>
