# vtk DataFile Version 4.0
vtk output
ASCII
DATASET UNSTRUCTURED_GRID
POINTS 9 float
1.00000000e+00 0.00000000e+00 0.00000000e+00 
5.00000000e-01 0.00000000e+00 0.00000000e+00 
1.00000000e+00 5.00000000e-01 0.00000000e+00 
2.01924605e-01 3.95916031e-01 1.93066895e-01 
0.00000000e+00 0.00000000e+00 0.00000000e+00 
1.00000000e+00 1.00000000e+00 0.00000000e+00 
5.00000000e-01 1.00000000e+00 0.00000000e+00 
0.00000000e+00 5.00000000e-01 0.00000000e+00 
0.00000000e+00 1.00000000e+00 0.00000000e+00 

CELLS 2 14
6 4 0 5 1 2 3
6 5 8 4 6 7 3

CELL_TYPES 2
22
22
POINT_DATA 9
FIELD FieldData 4
PRESSURE 1 9  float
6.94799995e+00
3.47399998e+00
6.94799995e+00
1.40297210e+00
0.00000000e+00
6.94799995e+00
3.47399998e+00
0.00000000e+00
0.00000000e+00
DISPLACEMENT 3 9  float
1.15800000e+00 0.00000000e+00 0.00000000e+00 
5.79000000e-01 0.00000000e+00 0.00000000e+00 
1.15800000e+00 5.00000000e-01 0.00000000e+00 
2.33828693e-01 3.95916031e-01 1.15840137e+00 
0.00000000e+00 0.00000000e+00 0.00000000e+00 
1.15800000e+00 1.00000000e+00 0.00000000e+00 
5.79000000e-01 1.00000000e+00 0.00000000e+00 
0.00000000e+00 5.00000000e-01 0.00000000e+00 
0.00000000e+00 1.00000000e+00 0.00000000e+00 
VELOCITY 3 9  float
2.00000000e+00 0.00000000e+00 0.00000000e+00 
1.00000000e+00 0.00000000e+00 0.00000000e+00 
2.00000000e+00 1.00000000e+00 0.00000000e+00 
4.03849211e-01 7.91832061e-01 3.86133790e-01 
0.00000000e+00 0.00000000e+00 0.00000000e+00 
2.00000000e+00 2.00000000e+00 0.00000000e+00 
1.00000000e+00 2.00000000e+00 0.00000000e+00 
0.00000000e+00 1.00000000e+00 0.00000000e+00 
0.00000000e+00 2.00000000e+00 0.00000000e+00 
BOUNDARY 1 9  float
-1.00000000e+00
-1.00000000e+00
-1.00000000e+00
-1.00000000e+00
-1.00000000e+00
-1.00000000e+00
-1.00000000e+00
-1.00000000e+00
-1.00000000e+00
CELL_DATA 2
FIELD FieldData 3
DENSITY 1 2  float
1.20000000e+01
1.80000000e+01
YOUNG_MODULUS 1 2  float
2.31599998e+00
3.47399998e+00
BOUNDARY 1 2  float
-1.00000000e+00
-1.00000000e+00
