# vtk DataFile Version 4.0
vtk output
ASCII
DATASET UNSTRUCTURED_GRID
POINTS 4 float
-7.87500013e-03 0.00000000e+00 3.00000000e+00 
-2.62499996e-03 0.00000000e+00 3.00000000e+00 
2.62499996e-03 0.00000000e+00 3.00000000e+00 
7.87500013e-03 0.00000000e+00 3.00000000e+00 

CELLS 4 8
1 0
1 1
1 2
1 3

CELL_TYPES 4
1
1
1
1
POINT_DATA 4
FIELD FieldData 3
MPC_DISPLACEMENT 3 4  float
0.00000000e+00 2.00000000e+00 3.00000012e-01 
0.00000000e+00 2.00000000e+00 3.00000012e-01 
0.00000000e+00 2.00000000e+00 3.00000012e-01 
0.00000000e+00 2.00000000e+00 3.00000012e-01 
MPC_AREA 1 4  float
4.00000006e-01
4.00000006e-01
4.00000006e-01
4.00000006e-01
BOUNDARY 1 4  float
1.00000000e+00
1.00000000e+00
1.00000000e+00
1.00000000e+00
