# vtk DataFile Version 4.0
vtk output
ASCII
DATASET UNSTRUCTURED_GRID
POINTS 3 float
0.00000000e+00 1.00000000e+00 0.00000000e+00 
0.00000000e+00 5.00000000e-01 0.00000000e+00 
0.00000000e+00 0.00000000e+00 0.00000000e+00 

CELLS 2 6
2 0 1
2 1 2

CELL_TYPES 2
3
3
POINT_DATA 3
FIELD FieldData 4
PRESSURE 1 3  float
0.00000000e+00
0.00000000e+00
0.00000000e+00
DISPLACEMENT 3 3  float
0.00000000e+00 1.00000000e+00 0.00000000e+00 
0.00000000e+00 5.00000000e-01 0.00000000e+00 
0.00000000e+00 0.00000000e+00 0.00000000e+00 
VELOCITY 3 3  float
0.00000000e+00 2.00000000e+00 0.00000000e+00 
0.00000000e+00 1.00000000e+00 0.00000000e+00 
0.00000000e+00 0.00000000e+00 0.00000000e+00 
BOUNDARY 1 3  float
1.00000000e+00
1.00000000e+00
1.00000000e+00
CELL_DATA 2
FIELD FieldData 3
DENSITY 1 2  float
0.00000000e+00
2.00000000e+00
YOUNG_MODULUS 1 2  float
0.00000000e+00
3.58000010e-01
BOUNDARY 1 2  float
1.00000000e+00
1.00000000e+00
