# vtk DataFile Version 4.0
vtk output
ASCII
DATASET UNSTRUCTURED_GRID
POINTS 20 float
-1.0000000e+00 -5.0000000e-01 0.0000000e+00 
-1.0000000e+00 0.0000000e+00 0.0000000e+00 
-1.0000000e+00 5.0000000e-01 0.0000000e+00 
-5.0000000e-01 -5.0000000e-01 0.0000000e+00 
-5.0000000e-01 0.0000000e+00 0.0000000e+00 
-5.0000000e-01 5.0000000e-01 0.0000000e+00 
0.0000000e+00 -5.0000000e-01 0.0000000e+00 
0.0000000e+00 0.0000000e+00 0.0000000e+00 
0.0000000e+00 5.0000000e-01 0.0000000e+00 
5.0000000e-01 -5.0000000e-01 0.0000000e+00 
5.0000000e-01 0.0000000e+00 0.0000000e+00 
5.0000000e-01 5.0000000e-01 0.0000000e+00 
1.0000000e+00 -5.0000000e-01 0.0000000e+00 
1.0000000e+00 0.0000000e+00 0.0000000e+00 
1.0000000e+00 5.0000000e-01 0.0000000e+00 
-2.0000000e-01 0.0000000e+00 0.0000000e+00 
-1.0000000e-01 0.0000000e+00 0.0000000e+00 
0.0000000e+00 0.0000000e+00 0.0000000e+00 
1.0000000e-01 0.0000000e+00 0.0000000e+00 
2.0000000e-01 0.0000000e+00 0.0000000e+00 

CELLS 8 40
4 0 1 4 3
4 1 2 5 4
4 3 4 7 6
4 4 5 8 7
4 6 7 10 9
4 7 8 11 10
4 9 10 13 12
4 10 11 14 13

CELL_TYPES 8
9
9
9
9
9
9
9
9
POINT_DATA 20
FIELD FieldData 0
CELL_DATA 8
FIELD FieldData 0
