/*--------------------------------*- C++ -*----------------------------------*\
| =========                 |                                                 |
| \\      /  F ield         | OpenFOAM: The Open Source CFD Toolbox           |
|  \\    /   O peration     | Version:  4.1                                   |
|   \\  /    A nd           | Web:      www.OpenFOAM.org                      |
|    \\/     M anipulation  |                                                 |
\*---------------------------------------------------------------------------*/
FoamFile
{
    version     2.0;
    format      ascii;
    class       volScalarField;
    location    "200";
    object      epsilon;
}
// * * * * * * * * * * * * * * * * * * * * * * * * * * * * * * * * * * * * * //

dimensions      [0 2 -3 0 0 0 0];

internalField   nonuniform List<scalar> 
1600
(
8.72944e-05
0.000102743
0.000124051
0.0001395
0.000155933
0.000166762
0.000180601
0.000197943
0.000222168
0.000249397
0.000279815
0.000310645
0.000340079
0.000364452
0.000383504
0.000397498
0.000409663
0.000421491
0.000436361
0.000452894
0.000473973
0.00049488
0.000518695
0.000540765
0.000563313
0.00058415
0.000601636
0.000617787
0.000629875
0.000641587
0.000650905
0.000656035
0.000659031
0.000661805
0.000668522
0.00068535
0.000805195
0.00125771
0.00191431
0.00248381
0.00292121
0.00321519
0.00340409
0.00359475
0.00373306
0.00391728
0.00402645
0.00406902
0.00405156
0.00404899
8.76003e-05
0.000102159
0.000122941
0.000138885
0.000154914
0.000165813
0.000179326
0.000197101
0.000221556
0.000249371
0.000280468
0.000311417
0.000339815
0.000363212
0.000382134
0.000396096
0.000408259
0.000420543
0.00043567
0.000452291
0.000473405
0.000494381
0.00051825
0.000540338
0.000562756
0.000583247
0.000600478
0.000616642
0.000628585
0.000640489
0.000649937
0.000654917
0.000658068
0.000660846
0.000667482
0.000684639
0.000807851
0.0012702
0.00191058
0.00245017
0.00291986
0.0032091
0.00340259
0.00359223
0.00372934
0.00391238
0.00402092
0.00406325
0.00404562
0.00404152
8.76564e-05
0.000101973
0.000121976
0.000138644
0.00015477
0.000165994
0.000179574
0.000196903
0.000221306
0.000248312
0.000279574
0.000311332
0.000340446
0.000363916
0.000382429
0.000396023
0.00040787
0.000419983
0.000435176
0.00045192
0.0004731
0.000494139
0.00051808
0.000540269
0.000562846
0.000583556
0.000600735
0.000616663
0.000628447
0.000640087
0.000649662
0.000654375
0.000657451
0.000660498
0.000668082
0.000685357
0.000797887
0.00126432
0.00192509
0.00246698
0.00293799
0.00320956
0.0033989
0.00358769
0.00372388
0.00390636
0.00401496
0.00405683
0.00403885
0.00403443
8.75582e-05
0.000102767
0.000121125
0.000137126
0.000153711
0.000164757
0.000178499
0.000195605
0.000220976
0.000248228
0.000279013
0.000310854
0.000339417
0.000363327
0.000381731
0.000395338
0.000407108
0.000419005
0.000434158
0.000450852
0.000471953
0.000492888
0.000516788
0.000538999
0.000561673
0.000582524
0.000599832
0.000615731
0.000627521
0.000638604
0.000648969
0.000653894
0.000656714
0.000659439
0.000666067
0.000685141
0.000789132
0.00124628
0.00192788
0.00248374
0.00291781
0.00319975
0.00338947
0.00357922
0.0037161
0.00389883
0.00400898
0.00405165
0.00403273
0.00402958
8.72097e-05
0.000103204
0.000123212
0.000137472
0.000153821
0.00016432
0.000177645
0.000194098
0.000218672
0.000246864
0.000277967
0.000310273
0.000339904
0.00036333
0.000381706
0.000395142
0.000406744
0.000418285
0.000433323
0.00045008
0.000471117
0.000491949
0.00051577
0.000537892
0.000560655
0.000581521
0.000598917
0.000614994
0.000627245
0.000638588
0.000649116
0.000654147
0.000656939
0.000659795
0.00066653
0.000686672
0.000796357
0.00125037
0.00192258
0.00250066
0.00291336
0.0032009
0.0033923
0.00358409
0.00372303
0.00390729
0.00401813
0.00406072
0.0040419
0.00404075
8.64863e-05
8.75299e-05
9.02455e-05
9.67024e-05
0.000105288
0.000110613
0.000113519
0.000119457
0.000126608
0.000134396
0.00014369
0.000159608
0.000173505
0.0001905
0.000211237
0.00023262
0.000256823
0.000281958
0.000310485
0.00034193
0.00037532
0.000406387
0.000438515
0.000470361
0.000502037
0.000534779
0.000565649
0.000594241
0.000621316
0.000644577
0.000667658
0.00068815
0.00070695
0.000722007
0.000733551
0.000746046
0.000769949
0.000812497
0.000931904
0.00111869
0.00139507
0.00164743
0.00181519
0.00200982
0.00213617
0.00226769
0.0024013
0.00244174
0.00251555
0.00259426
8.64799e-05
8.72068e-05
8.97639e-05
9.40782e-05
0.000100203
0.000106679
0.000113596
0.000120486
0.000130561
0.000137688
0.000144817
0.000155085
0.000173049
0.000191474
0.000211488
0.000233997
0.000259737
0.000285189
0.000311842
0.000340727
0.000373411
0.000406412
0.000439581
0.000470839
0.000501851
0.000533125
0.000563138
0.000593176
0.000622395
0.000646912
0.000670742
0.000690764
0.000708797
0.000722661
0.000734587
0.000747393
0.000775514
0.000831969
0.000950247
0.0011339
0.00137316
0.00161641
0.00182722
0.00199029
0.00214302
0.0022722
0.00240491
0.00244193
0.00252015
0.00260034
8.64634e-05
8.72292e-05
8.98863e-05
9.42699e-05
9.99273e-05
0.000107711
0.000113966
0.000119055
0.000126151
0.000136163
0.000146129
0.000156449
0.000168984
0.000186965
0.000208597
0.000232339
0.000258384
0.000284374
0.000312027
0.000340802
0.000372263
0.000404277
0.000437837
0.000470288
0.000501659
0.000532806
0.000561864
0.000590227
0.000618443
0.000643187
0.000667456
0.000688433
0.000707169
0.000721939
0.000734196
0.000745147
0.000763372
0.000827898
0.000951393
0.00116041
0.00140819
0.00164211
0.00181901
0.00198975
0.00212798
0.00228091
0.00240028
0.00243348
0.00251827
0.00260468
8.65227e-05
8.74634e-05
9.04316e-05
9.48943e-05
9.8977e-05
0.000104279
0.000115272
0.000124723
0.000128877
0.000138248
0.000147632
0.000158745
0.000172118
0.000188463
0.000207958
0.000230171
0.000256452
0.000286049
0.000315598
0.000345522
0.000377179
0.000408843
0.000442827
0.000476118
0.00050849
0.000539755
0.000568119
0.000595597
0.000622545
0.000646966
0.000671913
0.000692801
0.000711546
0.000726772
0.000739094
0.000749006
0.000766316
0.000810288
0.000954226
0.00116868
0.0014244
0.00161846
0.00183318
0.00200992
0.00214518
0.00227615
0.00239642
0.00244808
0.00252403
0.00260321
8.64662e-05
8.74241e-05
9.15607e-05
9.82826e-05
0.000102692
0.000106902
0.000112257
0.000120128
0.000127108
0.000134078
0.0001473
0.000158761
0.000172479
0.000188641
0.000207987
0.000230242
0.00025529
0.000282947
0.000313663
0.000343144
0.000374011
0.000404778
0.000437356
0.000469789
0.000501851
0.000533762
0.000563158
0.000590945
0.00061781
0.000641171
0.000665374
0.000686049
0.000704981
0.000720226
0.000731469
0.000747959
0.000768155
0.000827575
0.000970508
0.00115547
0.00140082
0.00161474
0.00183941
0.00200314
0.0021378
0.00227762
0.00239879
0.00244086
0.00252715
0.00260661
0.000106978
0.000116362
0.00014126
0.000180363
0.00021473
0.00024567
0.000280796
0.000356744
0.000429436
0.000513972
0.000602015
0.000726821
0.000891606
0.00109361
0.00123873
0.00134058
0.00144179
0.00153836
0.00163813
0.00175199
0.00185236
0.00192694
0.00197623
0.00201822
0.0020576
0.00209318
0.00211749
0.00213234
0.00212686
0.00211507
0.00209039
0.00207295
0.00204176
0.00202127
0.00198521
0.00195819
0.00191272
0.00189393
0.00185817
0.00185625
0.00186831
0.0018713
0.00189945
0.00198238
0.00199061
0.00203091
0.00211623
0.00217766
0.00219899
0.00224832
0.000106071
0.000112677
0.000127772
0.000164641
0.000206698
0.000249342
0.000286412
0.000347245
0.000433843
0.000528559
0.000614704
0.000715187
0.000826614
0.000980463
0.00117944
0.00134602
0.00146393
0.00155858
0.00163924
0.00171743
0.00180478
0.00189277
0.00196138
0.00200599
0.00203258
0.00205593
0.00207285
0.00209101
0.00210526
0.00210336
0.00209048
0.00207377
0.00203866
0.00201582
0.00197475
0.00194289
0.00189603
0.00186634
0.00183517
0.00183931
0.00185275
0.00189041
0.00190098
0.00194109
0.00201875
0.00205567
0.00206695
0.00213268
0.00215195
0.00221104
0.00010642
0.000112853
0.000124848
0.000149689
0.000200308
0.000249886
0.000283598
0.000335507
0.000396465
0.000514084
0.000619602
0.00074316
0.000848624
0.000959465
0.00109193
0.00125722
0.00140367
0.00152575
0.00162645
0.00171093
0.00178369
0.00185745
0.00192581
0.00198234
0.00201887
0.00204237
0.00205332
0.0020573
0.00206215
0.0020605
0.00205279
0.00204218
0.0020179
0.00199906
0.00196561
0.0019376
0.00189539
0.00186602
0.00182333
0.00181973
0.00181531
0.00183879
0.00186677
0.00190945
0.00195903
0.00202351
0.00208586
0.00209959
0.0021542
0.00222889
0.000106038
0.000113551
0.000126232
0.00014361
0.000173952
0.000239834
0.000301844
0.000372179
0.000413711
0.000500951
0.000624196
0.00077133
0.000912645
0.00101499
0.00110581
0.00123546
0.00138173
0.00153281
0.00165458
0.0017502
0.0018191
0.00187917
0.00193856
0.00199675
0.00203935
0.00206548
0.00207771
0.00207543
0.00207025
0.00206385
0.00205369
0.00204277
0.00202025
0.00200199
0.00196974
0.00194366
0.00190606
0.00188431
0.0018426
0.00184326
0.00183787
0.0018598
0.00189404
0.00194825
0.00198897
0.00206958
0.00211096
0.00212742
0.00213871
0.00219433
0.000106183
0.00011546
0.000132813
0.000152644
0.000169761
0.000205155
0.000253964
0.00033308
0.000395262
0.000474055
0.000569621
0.000704019
0.000849825
0.000998698
0.00110867
0.00121811
0.00132768
0.00144936
0.00156992
0.00167932
0.00176788
0.00183774
0.00189386
0.00194611
0.00198989
0.00202457
0.00204605
0.00205584
0.00205245
0.00204467
0.00202864
0.00201575
0.00198941
0.00197165
0.00193779
0.00191383
0.00187278
0.00185426
0.00181877
0.0018156
0.00181967
0.00183426
0.00186051
0.00191754
0.00196101
0.00202834
0.00208197
0.00213304
0.00214901
0.00220057
0.00016595
0.000295641
0.000437245
0.000649413
0.000955221
0.00130479
0.0017075
0.00217152
0.0026852
0.00320362
0.00363985
0.00399305
0.00433652
0.00461809
0.00482321
0.00494944
0.00501295
0.00506579
0.00511669
0.00518254
0.00522134
0.00522914
0.00521109
0.00517087
0.0051055
0.00501997
0.00492284
0.0048158
0.00470412
0.00459079
0.00447868
0.00436927
0.00425983
0.00415031
0.00404541
0.0039354
0.00383185
0.00373065
0.00363026
0.00353113
0.00343611
0.00334771
0.00326845
0.00320381
0.0031499
0.0031048
0.00306591
0.00302653
0.00297873
0.00291738
0.000220264
0.000411484
0.000751715
0.00104742
0.00137128
0.00176869
0.00220998
0.00264349
0.00315655
0.00360059
0.00408174
0.00439791
0.0046557
0.00490581
0.00517814
0.00538952
0.00549594
0.00553895
0.00554299
0.00555132
0.0055534
0.00554332
0.00551871
0.00548106
0.00542746
0.00535237
0.00525837
0.00515021
0.0050294
0.00490678
0.00478254
0.00465605
0.00453225
0.00440507
0.0042868
0.00416454
0.00404849
0.00394223
0.00383184
0.00373541
0.00364374
0.00357378
0.00351353
0.00345632
0.00340308
0.00335454
0.00330562
0.00325575
0.00319474
0.00303628
0.000229597
0.000355498
0.000643724
0.000958507
0.00129102
0.0016614
0.00209573
0.00254128
0.00301636
0.00353499
0.0039791
0.00437646
0.00465996
0.0048577
0.00502807
0.00520027
0.00535157
0.00545391
0.0054953
0.00551127
0.00550546
0.00548706
0.00544659
0.00538957
0.0053194
0.00523958
0.00514726
0.00505048
0.00494298
0.00483172
0.00471846
0.00460289
0.00448916
0.00437563
0.00426451
0.00415035
0.00403573
0.00392459
0.00381228
0.00370073
0.00359881
0.00350656
0.00343192
0.00337592
0.00332513
0.00328427
0.0032392
0.00320473
0.00314989
0.00298443
0.000232168
0.000326147
0.000516911
0.000876709
0.0012506
0.0016895
0.00220567
0.00270651
0.00317339
0.0036533
0.00410027
0.00448502
0.00478508
0.00498606
0.00513952
0.00527093
0.00541721
0.0055444
0.00559436
0.00560511
0.00560102
0.00558473
0.00554097
0.00547055
0.0053841
0.00529144
0.00518763
0.00508711
0.00497827
0.00486396
0.00474999
0.00463084
0.00451977
0.00440262
0.00429443
0.0041838
0.00407245
0.00396239
0.00385056
0.00373904
0.00363145
0.00352768
0.00344372
0.00338239
0.00333163
0.00329386
0.00324985
0.00320912
0.00315324
0.00298347
0.000240463
0.000336258
0.00047101
0.000744406
0.00109534
0.00147165
0.00191515
0.0024376
0.00297031
0.00349473
0.00392867
0.00434419
0.0046966
0.00492259
0.00507745
0.00518211
0.00526283
0.00538314
0.00549283
0.00555028
0.00556322
0.00555816
0.00553677
0.0054852
0.00539296
0.00529229
0.00517412
0.00505684
0.00494015
0.00482688
0.00471331
0.004606
0.0044818
0.0043817
0.00426366
0.00416012
0.00405509
0.00395138
0.00385067
0.00374173
0.00363396
0.00353019
0.00343458
0.0033633
0.00330239
0.0032588
0.00321335
0.00317456
0.003122
0.00295031
0.00476303
0.00494877
0.00510595
0.00516358
0.00519036
0.0052394
0.00535431
0.00552525
0.00570299
0.00593984
0.00623903
0.00645417
0.00662384
0.00668674
0.00673197
0.00682352
0.00694811
0.00715089
0.00730641
0.00741683
0.00748095
0.00752468
0.00754475
0.00754185
0.00752588
0.0074912
0.00742797
0.00736776
0.00729546
0.00723438
0.00715163
0.00708206
0.00699327
0.00691397
0.0068231
0.00673332
0.00663333
0.00653683
0.00643299
0.0063326
0.00622801
0.00613423
0.00604638
0.00597793
0.0059141
0.00586912
0.00582116
0.00579119
0.00573496
0.00574913
0.00477296
0.00492183
0.00502863
0.00513776
0.00519143
0.00521815
0.00528199
0.00542034
0.0055533
0.00574857
0.00598178
0.00628591
0.0065631
0.00678413
0.00687506
0.00693233
0.00693808
0.00699081
0.00711057
0.00724334
0.00733126
0.0073934
0.00743236
0.0074547
0.00745283
0.00743728
0.00739383
0.00732896
0.00723893
0.00716679
0.00707732
0.00700053
0.00690947
0.00682748
0.00674138
0.00665761
0.00656949
0.00648477
0.00639529
0.00630638
0.00620795
0.00611759
0.0060228
0.00594804
0.00587645
0.00582794
0.00577597
0.00574733
0.00569714
0.00571673
0.00477707
0.00494008
0.00503127
0.00512518
0.00519728
0.00524612
0.00528279
0.00536759
0.00547131
0.00562673
0.00581577
0.0060646
0.00632063
0.00657942
0.00678934
0.00691092
0.00699468
0.00700033
0.00703221
0.00710701
0.0071835
0.00724889
0.00729104
0.00732259
0.00732565
0.00731933
0.00730161
0.00726868
0.00720051
0.00713114
0.00704194
0.00695528
0.00685926
0.00677236
0.00668189
0.00659638
0.00650505
0.00642269
0.00633371
0.00625557
0.00616618
0.00608997
0.00600366
0.00593374
0.00586014
0.00580867
0.00575295
0.00572356
0.0056685
0.00568862
0.0047747
0.00494981
0.00504325
0.00510605
0.00516973
0.00524515
0.00527507
0.00534228
0.00545065
0.0056202
0.00573542
0.00592014
0.00613704
0.0063667
0.00659889
0.00678688
0.00695148
0.0070336
0.00704015
0.0070599
0.00709512
0.00714014
0.00717205
0.00720263
0.00720969
0.00720602
0.00719241
0.00716833
0.00711785
0.0070603
0.00698271
0.00690893
0.0068166
0.00672753
0.00663309
0.00654714
0.00645242
0.00637006
0.00628009
0.00620329
0.00611563
0.00604289
0.00596277
0.00589983
0.00583179
0.0057832
0.00572844
0.00569994
0.00564168
0.00566083
0.00478159
0.00496083
0.00506383
0.00512613
0.00516179
0.00522817
0.00532
0.00534969
0.00541041
0.00555326
0.00566951
0.00571584
0.005793
0.005926
0.00616852
0.00637654
0.00664962
0.00685485
0.00695734
0.00699296
0.00699976
0.00701063
0.00701119
0.00700959
0.00699975
0.00697676
0.00695324
0.00693566
0.00691104
0.00688081
0.00682767
0.00677955
0.00670403
0.00663505
0.00654361
0.00645792
0.00635857
0.0062669
0.00617045
0.00608567
0.00599898
0.00592983
0.00586384
0.00581064
0.00576117
0.00572343
0.00567962
0.00565507
0.00559925
0.00561638
0.000202763
0.000138453
0.000160289
0.000206094
0.000264373
0.000233707
0.000609912
0.000331021
0.000206856
0.000277929
0.000396835
0.000501764
0.000740029
0.00108435
0.000472744
0.000326777
0.000407302
0.000637334
0.000677793
0.00131294
0.00152634
0.000712082
0.000484324
0.000628232
0.000871217
0.000927915
0.00168079
0.00177027
0.0010319
0.000743717
0.000929185
0.00119329
0.00125499
0.00197362
0.00211353
0.00138734
0.00106224
0.00125607
0.00156688
0.00166023
0.00235672
0.00250778
0.00180386
0.00140979
0.00163022
0.00204419
0.00214901
0.00281766
0.00301428
0.00228492
0.00180836
0.00207854
0.0025843
0.00270777
0.00331319
0.00357541
0.00281087
0.00227448
0.00257829
0.00315006
0.00327129
0.00382605
0.00410041
0.00331731
0.00277367
0.00305494
0.00369434
0.00380323
0.00433747
0.00457626
0.00373063
0.00321899
0.00344564
0.00415438
0.00423859
0.00477454
0.00496729
0.00407931
0.0035746
0.00377338
0.00454806
0.00463204
0.0051268
0.00529072
0.00441955
0.00390157
0.00409927
0.00490041
0.00497149
0.0054359
0.00559709
0.00468618
0.00419906
0.00436927
0.00515228
0.00519976
0.00569521
0.00581953
0.00487381
0.00444121
0.00456676
0.00531506
0.00534473
0.00585558
0.00592493
0.00496851
0.00460762
0.00466511
0.00541797
0.00543421
0.00593613
0.00596462
0.00502773
0.00468483
0.00472506
0.00548662
0.00549935
0.00597281
0.00599754
0.00507549
0.00474454
0.0047639
0.00556621
0.00558228
0.00599934
0.00600929
0.00513811
0.00477902
0.00481317
0.00565224
0.0056704
0.00603286
0.00606197
0.00521167
0.00483182
0.00487914
0.00571574
0.00572858
0.00608895
0.00611949
0.00523521
0.00488462
0.00490585
0.00573621
0.00573698
0.00612897
0.0061329
0.00522803
0.00490347
0.00490283
0.00573042
0.00572576
0.00613131
0.00612235
0.00520384
0.00489475
0.00488157
0.00570794
0.0056998
0.00611461
0.00609547
0.00515772
0.00486368
0.00483946
0.00566312
0.00564867
0.00607854
0.00604722
0.0050853
0.00481276
0.00477547
0.00558468
0.00556188
0.00601383
0.0059699
0.00499698
0.00474155
0.0046975
0.0054833
0.00545789
0.00591799
0.00586407
0.00489611
0.00465875
0.00460788
0.00536726
0.00533744
0.0058036
0.00574199
0.00478731
0.00456528
0.00451012
0.00524209
0.00521177
0.00567422
0.00560624
0.00467414
0.00446527
0.00440546
0.00511632
0.00508546
0.00553947
0.00546734
0.00456202
0.00435957
0.00430028
0.00499373
0.00496491
0.00540541
0.00533839
0.00444915
0.00425458
0.00419326
0.00487309
0.00484365
0.00527753
0.0052085
0.00434142
0.00414889
0.00409073
0.00475765
0.00473028
0.00515316
0.00508925
0.00422912
0.00404609
0.00398445
0.00463802
0.00460691
0.00503608
0.00496883
0.00412319
0.00394054
0.00388375
0.00452365
0.00449802
0.00491311
0.00485072
0.0040151
0.0038417
0.00378027
0.0044118
0.00438193
0.00480316
0.00473899
0.00390736
0.0037364
0.00367734
0.00429825
0.00427205
0.00468368
0.00462002
0.0038044
0.00363552
0.00357828
0.00419276
0.0041665
0.0045722
0.00451525
0.00370428
0.00353848
0.00348391
0.00408706
0.0040612
0.00446576
0.00440969
0.00360444
0.00344268
0.00338992
0.00398384
0.00395908
0.00435995
0.00430921
0.00350587
0.00335089
0.00330193
0.00387733
0.00385106
0.00425851
0.00420776
0.00341199
0.00326437
0.00322127
0.00376996
0.00374411
0.00415631
0.00410821
0.00332531
0.00318699
0.00314944
0.00366534
0.00364025
0.00405645
0.00401079
0.00324872
0.00311981
0.00308719
0.0035697
0.00354656
0.00396438
0.00392065
0.00318844
0.00306482
0.00304005
0.00348955
0.00347034
0.00387796
0.003839
0.00313606
0.00301796
0.00299535
0.00342614
0.00340928
0.00380636
0.00377624
0.00309412
0.00297781
0.00296021
0.00337543
0.00335997
0.00374765
0.00372234
0.00305574
0.00294559
0.00292966
0.0033309
0.00331626
0.00369608
0.00367147
0.00301451
0.00291446
0.0028957
0.00328924
0.00327264
0.00364778
0.00361752
0.00295663
0.00287724
0.00284625
0.0032399
0.00321686
0.00359051
0.00353158
0.00281432
0.00282263
0.00273688
0.00314603
0.00305029
0.0034985
0.00335442
)
;

boundaryField
{
    inlet
    {
        type            turbulentMixingLengthDissipationRateInlet;
        mixingLength    0.5;
        phi             phi;
        k               k;
        value           nonuniform List<scalar> 
28
(
7.7439e-05
7.7439e-05
7.7439e-05
7.7439e-05
7.7439e-05
8.64043e-05
8.64044e-05
8.64044e-05
8.64044e-05
8.64043e-05
0.000105523
0.000105523
0.000105523
0.000105523
0.000105523
0.000127423
0.000136503
0.000136503
0.000136503
0.000136503
0.000181748
0.000181748
0.000181748
0.000181748
0.000181748
0.000146411
0.000146411
0.000127423
)
;
    }
    outlet
    {
        type            inletOutlet;
        inletValue      uniform 1;
        value           nonuniform List<scalar> 
28
(
0.00404899
0.00404152
0.00403443
0.00402958
0.00404075
0.00259426
0.00260034
0.00260468
0.00260321
0.00260661
0.00224832
0.00221104
0.00222889
0.00219433
0.00220057
0.00281432
0.00303628
0.00298443
0.00298347
0.00295031
0.00574913
0.00571673
0.00568862
0.00566083
0.00561638
0.00273688
0.00335442
0.00305029
)
;
    }
    side1
    {
        type            cyclicAMI;
        value           nonuniform List<scalar> 
400
(
8.7252e-05
8.64763e-05
0.000106581
0.000189675
0.00477231
0.000102974
8.7477e-05
0.000115911
0.000308573
0.0049548
0.000123632
9.09031e-05
0.000137036
0.000447995
0.00508489
0.000138486
9.74925e-05
0.000166504
0.000679658
0.00514486
0.000154877
0.00010399
0.000192246
0.000999833
0.00517607
0.000165541
0.000108758
0.000225413
0.00135792
0.00523378
0.000179123
0.000112888
0.00026738
0.00177362
0.00533716
0.000196021
0.000119793
0.000344912
0.00225624
0.00543747
0.00022042
0.000126858
0.000412349
0.00277598
0.0055567
0.00024813
0.000134237
0.000494014
0.00329631
0.00574655
0.000278891
0.000145495
0.000585818
0.00373181
0.00595427
0.000310459
0.000159184
0.00071542
0.00410485
0.00608501
0.000339991
0.000172992
0.000870716
0.00445117
0.00620842
0.000363891
0.000189571
0.00104616
0.00471504
0.00630637
0.000382605
0.000209612
0.0011737
0.00490416
0.00645025
0.00039632
0.000231431
0.00127935
0.00502352
0.00660003
0.000408203
0.000256057
0.00138473
0.00509251
0.00679887
0.000419888
0.000282452
0.00149386
0.00516683
0.00700287
0.000434842
0.000312074
0.00160403
0.00523645
0.00713187
0.000451487
0.000342537
0.00171566
0.00529962
0.0072049
0.000472545
0.000374665
0.00181012
0.00533019
0.00724036
0.000493414
0.000405582
0.00188234
0.0053339
0.00726765
0.000517233
0.000437936
0.00193504
0.00531479
0.00727797
0.000539329
0.000470075
0.00198217
0.00527095
0.00727572
0.000561984
0.000501944
0.00202374
0.00519702
0.00726281
0.000582835
0.000534271
0.00205888
0.00510668
0.00723398
0.000600277
0.000564404
0.00208177
0.00500285
0.0071906
0.000616391
0.000592593
0.00209409
0.00489255
0.00715171
0.00062856
0.000619563
0.00208966
0.00477927
0.00710325
0.000640087
0.000642874
0.00207987
0.00466596
0.0070576
0.00065001
0.000666516
0.00205951
0.00455339
0.00698965
0.000655091
0.0006871
0.00204435
0.00444465
0.0069308
0.000657985
0.000705965
0.00201559
0.0043305
0.00684865
0.0006608
0.000721116
0.00199646
0.00422398
0.00677451
0.000667526
0.00073251
0.0019615
0.0041149
0.00668336
0.000686011
0.000747003
0.00193601
0.00400695
0.00659562
0.000800776
0.000769052
0.00189275
0.00390293
0.00649595
0.00125404
0.000820036
0.0018741
0.00380093
0.00640186
0.00191845
0.000951206
0.00183847
0.00370044
0.00630172
0.00249223
0.00113708
0.00183593
0.00359818
0.00620914
0.00291729
0.00139794
0.00184399
0.0034991
0.00611349
0.00320805
0.00163108
0.00185278
0.00340581
0.00603203
0.0033982
0.0018273
0.00187998
0.00332134
0.00595511
0.00358942
0.00200648
0.00194996
0.00325459
0.00589428
0.00372804
0.00213699
0.00197581
0.00319846
0.00583764
0.00391229
0.00227265
0.00202963
0.00315383
0.00579628
0.00402229
0.00240004
0.0020991
0.00311286
0.00575039
0.00406487
0.0024413
0.00215535
0.00307366
0.00572313
0.00404673
0.00252135
0.002174
0.00302435
0.00566711
0.00404487
0.00260043
0.00222445
0.00292787
0.00568275
0.000214766
0.000256092
0.000217998
0.000332688
0.000444439
0.000375853
0.000472192
0.000606172
0.000579726
0.000722374
0.000864355
0.000827295
0.0010521
0.00119969
0.00115936
0.00141419
0.00159492
0.0015339
0.00183929
0.00206801
0.00199949
0.00233353
0.0026142
0.00253349
0.00286163
0.00316705
0.0030878
0.0033738
0.00369638
0.00362521
0.00379369
0.00413125
0.0040762
0.00416365
0.00453234
0.00447744
0.00450776
0.00487628
0.00482982
0.00476145
0.00510376
0.00507273
0.00493865
0.00525216
0.00523276
0.00503652
0.0053469
0.00533628
0.00510258
0.00541743
0.00540911
0.00517345
0.0055133
0.0055028
0.00525105
0.0056089
0.00559703
0.00531948
0.00566682
0.00565843
0.00533965
0.00567679
0.00567629
0.00533314
0.00566771
0.00567076
0.00530984
0.00564333
0.00564865
0.00526199
0.00559205
0.0056015
0.00518326
0.00550337
0.00551828
0.00509101
0.00540053
0.00541714
0.00498463
0.00528087
0.00530036
0.00487313
0.00515811
0.00517793
0.00475884
0.00503513
0.0050553
0.00464635
0.0049171
0.00493594
0.00453325
0.00479851
0.00481775
0.00442566
0.00468724
0.00470513
0.00430957
0.00456358
0.00458391
0.0042055
0.00445773
0.00447448
0.00409424
0.00434097
0.00436049
0.00398784
0.00423328
0.00425041
0.00388422
0.00412791
0.00414507
0.00378296
0.00402316
0.00404007
0.00368284
0.00392153
0.00393772
0.00358097
0.00381319
0.00383037
0.00348267
0.00370596
0.00372285
0.00339054
0.00360213
0.00361853
0.00330789
0.00350777
0.0035229
0.00324412
0.00343327
0.00344582
0.00318902
0.00337226
0.00338328
0.00314655
0.00332493
0.00333503
0.00310592
0.00328062
0.00329019
0.00306547
0.00323867
0.00324952
0.00300928
0.00318401
0.00319906
0.00285762
0.00301566
0.00307824
)
;
    }
    side2
    {
        type            cyclicAMI;
        value           nonuniform List<scalar> 
250
(
8.7252e-05
8.64763e-05
0.000106581
0.000219997
0.00477231
0.000102974
8.7477e-05
0.000115911
0.000366326
0.0049548
0.000123632
9.09031e-05
0.000137036
0.000527913
0.00508489
0.000138486
9.74925e-05
0.000166504
0.000774937
0.00514486
0.000154877
0.00010399
0.000192246
0.00110436
0.00517607
0.000165541
0.000108758
0.000225413
0.0014771
0.00523378
0.000179123
0.000112888
0.00026738
0.00192249
0.00533716
0.000196021
0.000119793
0.000344912
0.00243729
0.00543747
0.00022042
0.000126858
0.000412349
0.00297635
0.0055567
0.00024813
0.000134237
0.000494014
0.00350134
0.00574655
0.000278891
0.000145495
0.000585818
0.00393681
0.00595427
0.000310459
0.000159184
0.00071542
0.00432345
0.00608501
0.000339991
0.000172992
0.000870716
0.00467017
0.00620842
0.000363891
0.000189571
0.00104616
0.00491691
0.00630637
0.000382605
0.000209612
0.0011737
0.00508529
0.00645025
0.00039632
0.000231431
0.00127935
0.00518907
0.00660003
0.000408203
0.000256057
0.00138473
0.00525872
0.00679887
0.000419888
0.000282452
0.00149386
0.00534263
0.00700287
0.000434842
0.000312074
0.00160403
0.00542712
0.00713187
0.000451487
0.000342537
0.00171566
0.00548979
0.0072049
0.000472545
0.000374665
0.00181012
0.00550931
0.00724036
0.000493414
0.000405582
0.00188234
0.00550489
0.00726765
0.000517233
0.000437936
0.00193504
0.00548265
0.00727797
0.000539329
0.000470075
0.00198217
0.00543508
0.00727572
0.000561984
0.000501944
0.00202374
0.00535384
0.00726281
0.000582835
0.000534271
0.00205888
0.00525709
0.00723398
0.000600277
0.000564404
0.00208177
0.00514529
0.0071906
0.000616391
0.000592593
0.00209409
0.00502841
0.00715171
0.00062856
0.000619563
0.00208966
0.00491003
0.00710325
0.000640087
0.000642874
0.00207987
0.00479417
0.0070576
0.00065001
0.000666516
0.00205951
0.0046785
0.00698965
0.000655091
0.0006871
0.00204435
0.0045684
0.0069308
0.000657985
0.000705965
0.00201559
0.00444955
0.00684865
0.0006608
0.000721116
0.00199646
0.00434306
0.00677451
0.000667526
0.00073251
0.0019615
0.00423023
0.00668336
0.000686011
0.000747003
0.00193601
0.00412218
0.00659562
0.000800776
0.000769052
0.00189275
0.00401758
0.00649595
0.00125404
0.000820036
0.0018741
0.00391429
0.00640186
0.00191845
0.000951206
0.00183847
0.00381312
0.00630172
0.00249223
0.00113708
0.00183593
0.00370811
0.00620914
0.00291729
0.00139794
0.00184399
0.00360499
0.00611349
0.00320805
0.00163108
0.00185278
0.00350647
0.00603203
0.0033982
0.0018273
0.00187998
0.00341708
0.00595511
0.00358942
0.00200648
0.00194996
0.00334644
0.00589428
0.00372804
0.00213699
0.00197581
0.00328768
0.00583764
0.00391229
0.00227265
0.00202963
0.00324197
0.00579628
0.00402229
0.00240004
0.0020991
0.00319924
0.00575039
0.00406487
0.0024413
0.00215535
0.00315866
0.00572313
0.00404673
0.00252135
0.002174
0.003106
0.00566711
0.00404487
0.00260043
0.00222445
0.00297146
0.00568275
)
;
    }
    walls
    {
        type            epsilonWallFunction;
        Cmu             0.09;
        kappa           0.41;
        E               9.8;
        value           nonuniform List<scalar> 
250
(
0.00476303
0.00477296
0.00477707
0.0047747
0.00478159
0.00494877
0.00492183
0.00494008
0.00494981
0.00496083
0.00510595
0.00502863
0.00503127
0.00504325
0.00506383
0.00516358
0.00513776
0.00512518
0.00510605
0.00512613
0.00519036
0.00519143
0.00519728
0.00516973
0.00516179
0.0052394
0.00521815
0.00524612
0.00524515
0.00522817
0.00535431
0.00528199
0.00528279
0.00527507
0.00532
0.00552525
0.00542034
0.00536759
0.00534228
0.00534969
0.00570299
0.0055533
0.00547131
0.00545065
0.00541041
0.00593984
0.00574857
0.00562673
0.0056202
0.00555326
0.00623903
0.00598178
0.00581577
0.00573542
0.00566951
0.00645417
0.00628591
0.0060646
0.00592014
0.00571584
0.00662384
0.0065631
0.00632063
0.00613704
0.005793
0.00668674
0.00678413
0.00657942
0.0063667
0.005926
0.00673197
0.00687506
0.00678934
0.00659889
0.00616852
0.00682352
0.00693233
0.00691092
0.00678688
0.00637654
0.00694811
0.00693808
0.00699468
0.00695148
0.00664962
0.00715089
0.00699081
0.00700033
0.0070336
0.00685485
0.00730641
0.00711057
0.00703221
0.00704015
0.00695734
0.00741683
0.00724334
0.00710701
0.0070599
0.00699296
0.00748095
0.00733126
0.0071835
0.00709512
0.00699976
0.00752468
0.0073934
0.00724889
0.00714014
0.00701063
0.00754475
0.00743236
0.00729104
0.00717205
0.00701119
0.00754185
0.0074547
0.00732259
0.00720263
0.00700959
0.00752588
0.00745283
0.00732565
0.00720969
0.00699975
0.0074912
0.00743728
0.00731933
0.00720602
0.00697676
0.00742797
0.00739383
0.00730161
0.00719241
0.00695324
0.00736776
0.00732896
0.00726868
0.00716833
0.00693566
0.00729546
0.00723893
0.00720051
0.00711785
0.00691104
0.00723438
0.00716679
0.00713114
0.0070603
0.00688081
0.00715163
0.00707732
0.00704194
0.00698271
0.00682767
0.00708206
0.00700053
0.00695528
0.00690893
0.00677955
0.00699327
0.00690947
0.00685926
0.0068166
0.00670403
0.00691397
0.00682748
0.00677236
0.00672753
0.00663505
0.0068231
0.00674138
0.00668189
0.00663309
0.00654361
0.00673332
0.00665761
0.00659638
0.00654714
0.00645792
0.00663333
0.00656949
0.00650505
0.00645242
0.00635857
0.00653683
0.00648477
0.00642269
0.00637006
0.0062669
0.00643299
0.00639529
0.00633371
0.00628009
0.00617045
0.0063326
0.00630638
0.00625557
0.00620329
0.00608567
0.00622801
0.00620795
0.00616618
0.00611563
0.00599898
0.00613423
0.00611759
0.00608997
0.00604289
0.00592983
0.00604638
0.0060228
0.00600366
0.00596277
0.00586384
0.00597793
0.00594804
0.00593374
0.00589983
0.00581064
0.0059141
0.00587645
0.00586014
0.00583179
0.00576117
0.00586912