/*--------------------------------*- C++ -*----------------------------------*\
| =========                 |                                                 |
| \\      /  F ield         | OpenFOAM: The Open Source CFD Toolbox           |
|  \\    /   O peration     | Version:  4.1                                   |
|   \\  /    A nd           | Web:      www.OpenFOAM.org                      |
|    \\/     M anipulation  |                                                 |
\*---------------------------------------------------------------------------*/
FoamFile
{
    version     2.0;
    format      ascii;
    class       volScalarField;
    location    "200";
    object      k;
}
// * * * * * * * * * * * * * * * * * * * * * * * * * * * * * * * * * * * * * //

dimensions      [0 2 -2 0 0 0 0];

internalField   nonuniform List<scalar> 
1600
(
0.00389955
0.00403736
0.00416222
0.0042342
0.00428494
0.00429725
0.00432359
0.00436086
0.00443468
0.00449909
0.00458029
0.00462914
0.00467896
0.00468217
0.00467347
0.00465078
0.00461949
0.00458356
0.0045575
0.00453295
0.00451851
0.00450195
0.00448788
0.00446986
0.00445103
0.00442484
0.00438971
0.00435417
0.00430778
0.00426445
0.00422346
0.00416495
0.0040843
0.00400435
0.00399408
0.00406096
0.00506271
0.00779071
0.0100924
0.0120008
0.0133097
0.0144904
0.0151394
0.0159857
0.0166079
0.0171738
0.0179474
0.0181736
0.0182073
0.018196
0.00390204
0.00402679
0.00415247
0.00422857
0.00427874
0.00429218
0.00431758
0.00435522
0.00443073
0.00449769
0.00458203
0.00463197
0.00467777
0.00467803
0.00466912
0.00464661
0.00461568
0.00458092
0.00455542
0.00453105
0.00451675
0.00450055
0.00448654
0.00446872
0.00444982
0.00442321
0.00438738
0.00435151
0.00430466
0.0042611
0.00422107
0.0041634
0.00408356
0.00400087
0.00398623
0.00406199
0.00497524
0.0076766
0.010083
0.0119612
0.0133104
0.0144689
0.0151248
0.0159664
0.0165841
0.0171467
0.0179141
0.0181949
0.0181657
0.0181624
0.00390226
0.00402832
0.00414367
0.00422585
0.00427669
0.00429252
0.00431877
0.00435492
0.00442922
0.00449324
0.00457844
0.00463209
0.00468088
0.00468067
0.00467056
0.00464617
0.00461452
0.00457953
0.0045543
0.00453025
0.00451619
0.00450016
0.00448657
0.00446941
0.0044509
0.00442402
0.00438795
0.00435155
0.00430474
0.00426028
0.00422066
0.00416287
0.00408336
0.00400145
0.00398978
0.00405459
0.00495828
0.00755755
0.0100301
0.0119554
0.013371
0.0144676
0.0151079
0.0159456
0.0165621
0.0171224
0.0178884
0.0181699
0.0181397
0.0181358
0.00390071
0.00403121
0.00413983
0.00421467
0.0042699
0.00428684
0.00431384
0.00434965
0.00442705
0.00449173
0.00457484
0.00462913
0.00467748
0.00467895
0.00466907
0.00464457
0.00461256
0.00457702
0.00455175
0.00452759
0.00451368
0.00449772
0.00448391
0.00446624
0.0044475
0.00442114
0.00438605
0.00435003
0.00430368
0.00425787
0.00421867
0.00416152
0.00408298
0.00399749
0.00398322
0.00405637
0.00494497
0.00752113
0.00997492
0.0119534
0.0133175
0.014436
0.0150773
0.0159173
0.0165402
0.0171008
0.0178729
0.0181008
0.0181355
0.0181236
0.003898
0.00403806
0.00415063
0.00421568
0.00426845
0.00428298
0.00430919
0.00434403
0.00441832
0.00448597
0.00456976
0.00462579
0.00467722
0.00467832
0.00466891
0.00464453
0.00461194
0.00457545
0.0045499
0.00452576
0.00451141
0.00449595
0.00448275
0.0044658
0.00444731
0.00442131
0.00438617
0.00435043
0.00430409
0.00425895
0.00421908
0.00416163
0.0040823
0.00399874
0.00398775
0.00406221
0.0050788
0.00774714
0.0100121
0.0119755
0.0133128
0.0144502
0.0151007
0.0159493
0.016577
0.0171426
0.0179197
0.0181345
0.0181943
0.0181702
0.00409947
0.00410158
0.00411159
0.00413326
0.00415621
0.00416393
0.00416349
0.00416706
0.00417517
0.00418525
0.00419329
0.00421062
0.00423407
0.00425738
0.00428334
0.0043069
0.00433103
0.00435596
0.0043812
0.00441134
0.00443629
0.00446071
0.00447494
0.00448977
0.00449987
0.00450804
0.00450919
0.00450689
0.00449937
0.00448303
0.00446426
0.00443927
0.00441017
0.00437075
0.00431644
0.0042952
0.00431314
0.00456609
0.00525208
0.00623595
0.00714534
0.00808577
0.00886891
0.00949708
0.0101847
0.0106771
0.011232
0.0116684
0.0123225
0.0126323
0.00409976
0.00409784
0.00410377
0.00411604
0.00414063
0.00415215
0.00416493
0.00417313
0.00418566
0.00419477
0.00419776
0.0042065
0.0042272
0.00425519
0.00428429
0.00431383
0.00434224
0.00436583
0.00438563
0.0044111
0.00443446
0.00446199
0.00447829
0.00449252
0.00450069
0.00450638
0.00450833
0.004507
0.00450275
0.00449135
0.00447368
0.0044481
0.00441173
0.00437603
0.00432388
0.00432595
0.00432082
0.00462202
0.00533522
0.00618429
0.00703659
0.00807658
0.00881011
0.00944312
0.0101133
0.0106912
0.0112353
0.0117031
0.0123375
0.0126365
0.00410132
0.00409795
0.004103
0.00411241
0.00413337
0.00415331
0.00416237
0.00416656
0.00417324
0.00418666
0.0042004
0.00421168
0.00422235
0.0042446
0.0042722
0.00430524
0.0043351
0.00436306
0.00438588
0.0044113
0.0044318
0.00445667
0.00447399
0.00449034
0.00449926
0.00450479
0.00450384
0.00450011
0.00449231
0.00447997
0.00446408
0.00444222
0.0044089
0.00437249
0.00432089
0.00429887
0.00432989
0.00461082
0.00529268
0.00618185
0.0071728
0.00803708
0.00887737
0.00952258
0.0101747
0.0107343
0.0112743
0.0117307
0.0123233
0.0126015
0.00410327
0.00409965
0.00410483
0.00411402
0.00412545
0.00414051
0.00417126
0.00418646
0.00418455
0.00418971
0.00420276
0.00421903
0.0042334
0.00425186
0.00427284
0.00430112
0.00433314
0.00436904
0.00439664
0.00442448
0.00444527
0.00446865
0.00448591
0.00450499
0.00451535
0.00452101
0.00451934
0.00451426
0.0045037
0.00449
0.00447556
0.00445153
0.00442491
0.00437544
0.00434451
0.00431937
0.00436847
0.00469082
0.00530774
0.00617135
0.00718489
0.00808421
0.00881672
0.00945107
0.0102052
0.0106995
0.0112416
0.0116825
0.0123471
0.0126225
0.00410152
0.00410014
0.00410825
0.0041284
0.00414521
0.00414999
0.00415688
0.00417123
0.0041802
0.00418509
0.00419536
0.00421382
0.00423127
0.00425115
0.00427201
0.00429789
0.00432559
0.00435592
0.00438542
0.00441299
0.00443373
0.00445629
0.00447083
0.00448715
0.00449717
0.00450447
0.00450353
0.00449929
0.00448963
0.00447262
0.00445657
0.00443159
0.00440452
0.00436129
0.00431778
0.00428719
0.00435182
0.00463403
0.00536736
0.00625964
0.00711852
0.00795427
0.00884473
0.00948484
0.0101881
0.0107111
0.0112601
0.011698
0.0123392
0.0126323
0.00468986
0.00472566
0.00485325
0.00497848
0.00501402
0.00502848
0.00507635
0.00520094
0.00537891
0.00552579
0.00566282
0.00590911
0.00624945
0.00662975
0.00687631
0.00700922
0.00714467
0.00726722
0.00739668
0.00755259
0.0076803
0.00776377
0.00778992
0.00780345
0.00782209
0.00781813
0.00780721
0.00778163
0.0077207
0.00763835
0.00753136
0.00744428
0.00732901
0.00723755
0.00710603
0.00700483
0.006841
0.00674984
0.00667936
0.00672361
0.00680455
0.00707287
0.00715692
0.00735905
0.00770469
0.00805894
0.00829582
0.00862192
0.00893688
0.00931564
0.00468528
0.00469096
0.00474268
0.00487911
0.00499537
0.00504802
0.0050942
0.00518774
0.00534087
0.00558411
0.00571006
0.00586564
0.00606271
0.00634995
0.00672036
0.00700402
0.00717443
0.00729558
0.00738334
0.00746802
0.00756631
0.0076749
0.00774576
0.00776213
0.00775684
0.00774017
0.00770434
0.00768124
0.00764589
0.00759658
0.00750644
0.00742458
0.00729797
0.00721716
0.00707792
0.00696008
0.00678266
0.00674257
0.0066967
0.00675453
0.00684714
0.00703348
0.00721114
0.00741733
0.00763881
0.00798702
0.00823157
0.00862856
0.00888825
0.00933317
0.0046867
0.00469659
0.00472609
0.0047983
0.00496737
0.00505651
0.00509221
0.00516106
0.0052627
0.00550515
0.00574837
0.00596072
0.00611868
0.00628553
0.006503
0.0067845
0.00702342
0.0071983
0.00732598
0.0074245
0.00749562
0.00757221
0.00764095
0.00768485
0.0076922
0.00768073
0.00764442
0.007598
0.00753784
0.00748649
0.00741091
0.00733446
0.00723231
0.00714395
0.00702722
0.00692814
0.00676384
0.00667525
0.00661572
0.00666671
0.00672712
0.00688522
0.00703629
0.00726338
0.00766735
0.00798003
0.00825393
0.00865228
0.00894634
0.00929323
0.00468506
0.00470782
0.00474182
0.00477391
0.0048484
0.00501608
0.00516671
0.00530624
0.00534596
0.0054613
0.00571304
0.00602371
0.00627369
0.00642515
0.00653353
0.00673315
0.00696747
0.00720527
0.00737594
0.00750134
0.00756818
0.00761714
0.0076633
0.00771357
0.0077301
0.00772331
0.00769287
0.00763599
0.00755264
0.0074873
0.0074109
0.00733334
0.00723598
0.00714268
0.00702897
0.0069314
0.00677947
0.0067375
0.00668631
0.00674517
0.00684105
0.00699585
0.00710347
0.00730308
0.0076896
0.00801955
0.00830665
0.00865193
0.00890188
0.00933256
0.00468499
0.00472066
0.00479312
0.00482695
0.00484348
0.00489114
0.00499496
0.00516059
0.00529013
0.00540849
0.00556762
0.00583745
0.00610843
0.00636364
0.00652757
0.00668028
0.00683619
0.00701719
0.00718631
0.0073364
0.00744381
0.00751739
0.00756043
0.0075972
0.00762532
0.00762543
0.00761263
0.00758088
0.00751311
0.00744043
0.00735554
0.00727735
0.00717202
0.00708492
0.00696514
0.00686877
0.00671301
0.00663978
0.00659524
0.00663966
0.0067356
0.00689638
0.00700234
0.00730204
0.00766482
0.00801327
0.00826186
0.00864956
0.00890713
0.00936315
0.00545401
0.00574589
0.00614985
0.006577
0.00709089
0.0078249
0.00875807
0.00972993
0.010794
0.0118116
0.0125927
0.0132102
0.0137026
0.0140043
0.0142401
0.0143861
0.0144591
0.014505
0.0145029
0.014491
0.014452
0.0143807
0.0142689
0.0141152
0.0139071
0.0136594
0.0134059
0.0131638
0.0129193
0.0126695
0.0124199
0.0121793
0.0119263
0.0116873
0.0114378
0.0111734
0.0109168
0.0106607
0.0104179
0.0101862
0.00997824
0.0097973
0.00964527
0.00953411
0.00946724
0.0093984
0.00934168
0.0092717
0.00921289
0.00915874
0.00560389
0.00580047
0.0062903
0.00713522
0.00777736
0.00847084
0.00938944
0.0103692
0.0113297
0.012212
0.0130129
0.0136103
0.0140371
0.0143269
0.0145417
0.0146849
0.0147396
0.0147388
0.0147136
0.0146512
0.0145589
0.0144462
0.0143207
0.0141803
0.0140129
0.0138106
0.0135662
0.0133127
0.0130466
0.0127885
0.0125131
0.0122396
0.0119684
0.0117184
0.0114786
0.0112301
0.0109878
0.0107589
0.0105262
0.010303
0.010095
0.0099155
0.00976337
0.00964193
0.00953885
0.00945484
0.00937439
0.00930546
0.00924498
0.00913229
0.00559652
0.00576177
0.00608933
0.00677803
0.0077215
0.00841366
0.00924158
0.0101766
0.0111855
0.0119577
0.0127558
0.0133981
0.0138784
0.0142309
0.0144442
0.0145946
0.014723
0.0147285
0.0147054
0.014647
0.0145492
0.0144127
0.0142546
0.0140924
0.0139186
0.0137442
0.0135238
0.0132932
0.0130378
0.0127859
0.0125223
0.0122602
0.0119846
0.0117092
0.0114448
0.0111892
0.0109336
0.0107093
0.0104821
0.0102629
0.0100558
0.00987291
0.00972592
0.00960046
0.00949868
0.00940826
0.00932038
0.00925944
0.00920642
0.00910158
0.00559313
0.00577642
0.00612675
0.00660079
0.00746235
0.00853735
0.00942774
0.0103508
0.0113932
0.0122457
0.0129486
0.0135479
0.0139777
0.0143234
0.0145984
0.0147261
0.0148497
0.0148995
0.0148896
0.0148488
0.0147786
0.0146792
0.0145049
0.0142806
0.0140295
0.0138223
0.0135953
0.0133856
0.0131444
0.0129009
0.0126487
0.0123927
0.0121387
0.01186
0.0115911
0.0113308
0.0110576
0.0108087
0.0105742
0.0103435
0.0101333
0.00993867
0.0097885
0.00965431
0.00957412
0.00949784
0.00941615
0.00933192
0.00926559
0.00912813
0.00559417
0.00580839
0.00622336
0.00666177
0.0072751
0.00812624
0.00910115
0.0100591
0.0111938
0.0121762
0.0129331
0.013565
0.0140193
0.0142504
0.0144991
0.0146203
0.0147128
0.0147873
0.0148077
0.0147934
0.0147483
0.0146743
0.0145541
0.0143885
0.0141489
0.0138839
0.0136252
0.0133852
0.0131322
0.0128841
0.0126379
0.012398
0.0121298
0.0119077
0.0116267
0.011371
0.0111008
0.0108445
0.0106028
0.0103632
0.0101443
0.00994079
0.00976977
0.00965173
0.00958111
0.00949785
0.00943405
0.00933478
0.00927447
0.00914568
0.00683588
0.00701241
0.0071601
0.00721388
0.00723881
0.00728432
0.0073906
0.0075461
0.00771014
0.00792048
0.00818263
0.00836995
0.00851757
0.00857023
0.00860939
0.008687
0.00879243
0.00896283
0.00909225
0.00918371
0.00923647
0.00927239
0.00928904
0.00928669
0.00927388
0.00924572
0.00919397
0.00914447
0.00908472
0.00903418
0.00896572
0.00890747
0.00883389
0.00876689
0.00869005
0.00861428
0.00852837
0.00844488
0.00835459
0.00826743
0.00817591
0.00809236
0.00801218
0.0079488
0.00788811
0.00784583
0.0077979
0.0077772
0.00771755
0.00773263
0.00684534
0.00698692
0.00708764
0.00718981
0.00723981
0.00726461
0.00732383
0.00745046
0.007574
0.00774824
0.0079605
0.00822285
0.00846712
0.00865369
0.00873095
0.0087792
0.00878398
0.00882847
0.00892906
0.00903989
0.00911297
0.00916415
0.00919643
0.00921496
0.00921351
0.00920094
0.0091656
0.00911223
0.00903772
0.00897768
0.00890328
0.00883876
0.00876285
0.00869341
0.0086204
0.00854954
0.00847385
0.00840003
0.00832171
0.00824433
0.00815795
0.00807776
0.0079921
0.00792319
0.00785569
0.00781004
0.00775811
0.0077367
0.00768396
0.00770514
0.00684924
0.00700418
0.00709013
0.00717807
0.00724523
0.00729054
0.00732453
0.00740248
0.00749786
0.00763948
0.00780909
0.00803004
0.0082556
0.00847823
0.00865811
0.00876124
0.00883176
0.00883648
0.0088633
0.00892608
0.00899015
0.00904451
0.00907953
0.00910578
0.00910848
0.00910332
0.00908901
0.00906189
0.00900558
0.0089479
0.00887344
0.00880031
0.00872013
0.00864621
0.00856927
0.0084966
0.00841828
0.00834644
0.00826836
0.00820007
0.00812123
0.00805351
0.007975
0.00791078
0.00784171
0.00779359
0.00773813
0.00771428
0.00765892
0.00767902
0.00684699
0.00701338
0.00710137
0.0071602
0.0072196
0.00728965
0.00731736
0.00737936
0.00747868
0.00763462
0.00773726
0.00790205
0.00809447
0.00829485
0.00849503
0.00865606
0.00879545
0.00886451
0.00886997
0.00888651
0.00891616
0.0089539
0.00898054
0.0090061
0.00901218
0.0090092
0.0089981
0.00897819
0.00893636
0.00888843
0.00882368
0.00876091
0.00868389
0.00860778
0.00852727
0.00845384
0.00837261
0.00830074
0.00822169
0.00815441
0.00807703
0.00801233
0.00793915
0.00788083
0.00781662
0.0077711
0.00771675
0.00769337
0.0076367
0.0076563
0.00685357
0.00702379
0.00712067
0.00717897
0.00721221
0.00727392
0.00735883
0.00738591
0.00744215
0.00757247
0.0076787
0.00772131
0.00778812
0.0079074
0.00812182
0.00830339
0.00853899
0.00871375
0.00880029
0.00883023
0.00883574
0.00884509
0.00884564
0.00884434
0.00883626
0.00881724
0.00879734
0.00878286
0.00876198
0.00873703
0.00869255
0.00865133
0.00858809
0.00852857
0.00845057
0.00837647
0.00829038
0.0082103
0.00812507
0.00805107
0.0079736
0.0079114
0.00785033
0.00780051
0.00775267
0.00771674
0.00767423
0.00765208
0.00760209
0.00761872
0.00555014
0.00531912
0.00543905
0.00570724
0.0056822
0.00595001
0.00593872
0.00583863
0.00556365
0.0057673
0.0058478
0.0059186
0.0060106
0.00616791
0.00624344
0.00594795
0.00619569
0.00634286
0.00647514
0.00654576
0.00700598
0.00665414
0.00637667
0.00656185
0.00692458
0.00703067
0.00735538
0.00762444
0.00718785
0.00678855
0.00705435
0.00756839
0.00774859
0.00803878
0.00827088
0.00796122
0.00740769
0.00768181
0.00852104
0.00881773
0.00877582
0.00913525
0.00895313
0.00816243
0.00855717
0.00980618
0.0101065
0.00985553
0.0102442
0.00991408
0.00905156
0.00947571
0.0110063
0.0112688
0.0109872
0.0113113
0.0110222
0.0100045
0.0105204
0.0121144
0.0123935
0.0119726
0.012273
0.0119956
0.0110053
0.011484
0.0131295
0.0133373
0.0129139
0.0131713
0.0127346
0.0118236
0.0122188
0.0138828
0.014025
0.0136812
0.0138899
0.0133359
0.0124683
0.012788
0.0144171
0.0145243
0.014257
0.0143845
0.013802
0.0129865
0.0132448
0.0147924
0.0148747
0.0145998
0.0146873
0.0140658
0.0133605
0.0135307
0.01499
0.0150245
0.014766
0.0147637
0.0143065
0.0136061
0.0137624
0.0151146
0.0151571
0.0147874
0.0147859
0.0144067
0.0137983
0.0138555
0.0151921
0.0151966
0.0148078
0.0148044
0.0144792
0.0138713
0.0139166
0.0152096
0.0152076
0.0147963
0.0147669
0.0145028
0.013925
0.0139221
0.0152073
0.0151961
0.0147917
0.0147898
0.014506
0.0139059
0.0139012
0.0151763
0.0151609
0.0147728
0.014739
0.01449
0.0138784
0.0138714
0.0151302
0.0151159
0.0147098
0.014675
0.0144431
0.0138399
0.013824
0.0150671
0.015044
0.0146452
0.0146006
0.0143635
0.0137757
0.0137484
0.0149766
0.0149471
0.0145704
0.0145278
0.0142413
0.0136785
0.0136371
0.0148584
0.0148203
0.0144798
0.0144348
0.0140789
0.0135448
0.0134917
0.0147052
0.0146576
0.0143548
0.0142995
0.0138572
0.0133768
0.0132997
0.0145004
0.0144365
0.0141804
0.0141048
0.0136044
0.0131616
0.0130678
0.0142439
0.0141705
0.0139449
0.0138532
0.0133524
0.0129204
0.0128322
0.013966
0.0138916
0.0136683
0.0135665
0.0131125
0.0126828
0.0126036
0.0136896
0.0136162
0.0133892
0.0132737
0.0128632
0.0124502
0.0123625
0.0134116
0.0133349
0.0131066
0.0129861
0.0126149
0.0122058
0.012119
0.0131351
0.0130627
0.01283
0.0127143
0.0123649
0.01196
0.0118688
0.0128651
0.0127926
0.0125632
0.012448
0.012126
0.0117173
0.0116326
0.0126061
0.0125378
0.0123047
0.0122061
0.0118663
0.011479
0.0113867
0.0123453
0.0122721
0.0120587
0.0119597
0.0116379
0.0112349
0.011157
0.012093
0.0120311
0.0118162
0.0117404
0.0113733
0.011013
0.010921
0.0118465
0.0117732
0.0115982
0.0115153
0.0111163
0.0107613
0.0106711
0.0115816
0.0115132
0.0113619
0.0112782
0.0108559
0.0105203
0.01043
0.0113273
0.011258
0.0111293
0.0110495
0.0106043
0.0102815
0.0101947
0.0110738
0.0110062
0.0108985
0.0108163
0.0103648
0.0100517
0.00996812
0.01083
0.0107658
0.0106656
0.0105845
0.0101376
0.00984039
0.00976491
0.0105922
0.0105292
0.0104379
0.0103578
0.00993418
0.00965667
0.00959
0.0103663
0.0103075
0.0102198
0.0101403
0.00976142
0.00950849
0.00945908
0.0101561
0.0101041
0.010018
0.00994673
0.00961812
0.00938886
0.00934414
0.00997776
0.00993577
0.00984755
0.0097885
0.00951276
0.00929855
0.00926566
0.00983471
0.00980189
0.00970879
0.00965773
0.0094496
0.00923415
0.0091907
0.00973479
0.00970699
0.00959642
0.00955645
0.00938899
0.00918054
0.00914721
0.00964121
0.00961272
0.00949956
0.00945945
0.00932709
0.00914723
0.00912566
0.00956343
0.00952431
0.00940844
0.00937631
0.00925426
0.00910933
0.00909544
0.00948462
0.00945374
0.00933191
0.00929836
0.0091978
0.00907432
0.00902404
0.00940203
0.00935734
0.00926582
0.00922881
0.00910997
0.00905674
0.00902978
0.00930938
0.00919609
0.00918016
0.00909961
)
;

boundaryField
{
    inlet
    {
        type            turbulentIntensityKineticEnergyInlet;
        intensity       0.05;
        value           nonuniform List<scalar> 
28
(
0.00381504
0.00381504
0.00381504
0.00381504
0.00381504
0.00410408
0.00410408
0.00410408
0.00410408
0.00410408
0.00468911
0.00468911
0.00468911
0.00468911
0.00468911
0.00531729
0.005567
0.005567
0.005567
0.005567
0.0067376
0.0067376
0.0067376
0.0067376
0.0067376
0.00583321
0.00583321
0.0053173
)
;
    }
    outlet
    {
        type            inletOutlet;
        inletValue      uniform 1;
        value           nonuniform List<scalar> 
28
(
0.018196
0.0181624
0.0181358
0.0181236
0.0181702
0.0126323
0.0126365
0.0126015
0.0126225
0.0126323
0.00931564
0.00933317
0.00929323
0.00933256
0.00936315
0.00910997
0.00913229
0.00910158
0.00912813
0.00914568
0.00773263
0.00770514
0.00767902
0.0076563
0.00761872
0.00902978
0.00909961
0.00919609
)
;
    }
    side1
    {
        type            cyclicAMI;
        value           nonuniform List<scalar> 
400
(
0.00389878
0.00410049
0.00468743
0.00549864
0.00684473
0.00403771
0.00410086
0.00472316
0.00576579
0.0070181
0.00415643
0.00410992
0.00482318
0.00617325
0.00714039
0.00422494
0.00413083
0.00490272
0.00660399
0.00719643
0.00427669
0.00415071
0.00492875
0.00714954
0.00722551
0.00429012
0.00415696
0.00495981
0.00792085
0.00727912
0.00431639
0.00416019
0.00503565
0.00886731
0.00737472
0.00435244
0.00416915
0.00518077
0.00983475
0.00746601
0.0044265
0.00417768
0.00533452
0.0109213
0.00757615
0.00449253
0.00418517
0.00546714
0.0119277
0.00774648
0.00457503
0.00419432
0.00561522
0.0127011
0.00793067
0.00462747
0.00421222
0.00587328
0.0133232
0.00804563
0.00467809
0.00423267
0.00617894
0.0138034
0.00815284
0.00468025
0.00425427
0.0064967
0.0140827
0.00823881
0.00467119
0.00427768
0.00670194
0.0143226
0.0083656
0.00464765
0.00430239
0.00684475
0.0144607
0.0084952
0.00461572
0.00432831
0.00699043
0.0145399
0.00866571
0.00457951
0.00435594
0.0071422
0.0145948
0.00883829
0.0045537
0.00438331
0.0072915
0.0145999
0.00894627
0.00452935
0.00441216
0.00744449
0.0145873
0.00900697
0.00451496
0.00443501
0.00756206
0.0145463
0.0090361
0.00449895
0.0044585
0.00764058
0.0144742
0.00905874
0.00448531
0.00447288
0.00767517
0.0143597
0.00906734
0.00446783
0.00448846
0.00770033
0.0142022
0.00906552
0.00444917
0.00449852
0.0077237
0.0139841
0.00905507
0.00442308
0.00450626
0.00772178
0.0137308
0.00903148
0.00438794
0.00450636
0.00770992
0.0134757
0.00899565
0.0043523
0.00450309
0.00768126
0.0132343
0.00896366
0.00430594
0.0044945
0.00761691
0.012987
0.00892335
0.0042617
0.00447783
0.00753939
0.0127378
0.00888561
0.00422127
0.00446042
0.00744345
0.0124893
0.00882913
0.00416329
0.00443543
0.00736081
0.012249
0.0087794
0.0040833
0.00440735
0.00725051
0.0119911
0.00871099
0.00400154
0.00436602
0.00716123
0.0117575
0.00864773
0.00399091
0.00431711
0.00703558
0.0114979
0.00857031
0.00406158
0.00429119
0.0069368
0.0112363
0.00849538
0.00507075
0.00433248
0.00677701
0.0109754
0.00840938
0.00776893
0.00460006
0.00669481
0.0107192
0.00832759
0.0100523
0.00530972
0.0066373
0.0104768
0.00823983
0.0119881
0.0062478
0.00668163
0.0102426
0.00815925
0.0133112
0.00713193
0.00677008
0.0100311
0.00807476
0.0144703
0.00802002
0.00698462
0.00984299
0.00800188
0.0151201
0.00885682
0.00707963
0.00968491
0.00793125
0.0159675
0.00949096
0.00733054
0.00957156
0.00787466
0.0165924
0.0101864
0.00768476
0.0095035
0.00782039
0.0171582
0.0106941
0.00803611
0.00943007
0.00778128
0.0179335
0.011246
0.00827884
0.00937109
0.00773606
0.018154
0.0116832
0.00863574
0.00929178
0.00771464
0.0182008
0.0123309
0.00892201
0.0092325
0.00765982
0.0181831
0.0126323
0.0093394
0.00915458
0.00767567
0.00556416
0.00565171
0.00566808
0.005829
0.00588043
0.00583415
0.00623705
0.00638794
0.00630147
0.00665657
0.0069029
0.00683355
0.00721563
0.00758459
0.00746681
0.00801376
0.00857823
0.0083843
0.00900026
0.00975828
0.00956199
0.00996027
0.0108498
0.0106783
0.0110769
0.011978
0.0117955
0.0120531
0.0129351
0.0127993
0.0127978
0.0136468
0.0135539
0.0134088
0.014192
0.014122
0.0138712
0.0145784
0.0145246
0.0141246
0.0147564
0.0147338
0.0143678
0.0149292
0.0149014
0.0144747
0.014997
0.014994
0.0145536
0.0150362
0.0150376
0.0145934
0.0150545
0.0150618
0.0146021
0.0150386
0.0150486
0.0145866
0.0150042
0.0150136
0.0145403
0.0149416
0.0149567
0.0144625
0.0148526
0.0148719
0.0143409
0.0147281
0.014753
0.0141774
0.0145644
0.0145955
0.01395
0.0143369
0.0143786
0.0136934
0.0140712
0.0141192
0.0134392
0.0137993
0.013848
0.0131993
0.0135362
0.0135842
0.0129488
0.0132647
0.0133148
0.0127006
0.0130008
0.0130481
0.0124518
0.012739
0.0127864
0.0122126
0.0124894
0.012534
0.0119502
0.0122228
0.0122706
0.0117238
0.0119883
0.0120288
0.011454
0.0117224
0.0117703
0.0111974
0.0114639
0.0115087
0.0109339
0.0112036
0.0112489
0.0106808
0.0109502
0.0109944
0.0104406
0.0107093
0.0107513
0.0102094
0.0104717
0.0105129
0.0100011
0.010251
0.0102894
0.00981853
0.0100475
0.0100815
0.0096664
0.00987827
0.00990572
0.00955701
0.00974988
0.00977133
0.00949147
0.00966339
0.00968156
0.00942365
0.00957294
0.00959156
0.00936115
0.00949305
0.00951862
0.0092799
0.00941254
0.00943272
0.00922221
0.00932864
0.00935785
0.00912134
0.00917863
0.00925268
)
;
    }
    side2
    {
        type            cyclicAMI;
        value           nonuniform List<scalar> 
250
(
0.00389878
0.00410049
0.00468743
0.00559699
0.00684473
0.00403771
0.00410086
0.00472316
0.00582797
0.0070181
0.00415643
0.00410992
0.00482318
0.00627639
0.00714039
0.00422494
0.00413083
0.00490272
0.00675174
0.00719643
0.00427669
0.00415071
0.00492875
0.00735774
0.00722551
0.00429012
0.00415696
0.00495981
0.00822967
0.00727912
0.00431639
0.00416019
0.00503565
0.00930457
0.00737472
0.00435244
0.00416915
0.00518077
0.0103398
0.00746601
0.0044265
0.00417768
0.00533452
0.0114522
0.00757615
0.00449253
0.00418517
0.00546714
0.012438
0.00774648
0.00457503
0.00419432
0.00561522
0.0131838
0.00793067
0.00462747
0.00421222
0.00587328
0.0137698
0.00804563
0.00467809
0.00423267
0.00617894
0.0142019
0.00815284
0.00468025
0.00425427
0.0064967
0.0144311
0.00823881
0.00467119
0.00427768
0.00670194
0.0146362
0.0083656
0.00464765
0.00430239
0.00684475
0.0147371
0.0084952
0.00461572
0.00432831
0.00699043
0.0147969
0.00866571
0.00457951
0.00435594
0.0071422
0.014831
0.00883829
0.0045537
0.00438331
0.0072915
0.0148269
0.00894627
0.00452935
0.00441216
0.00744449
0.0148023
0.00900697
0.00451496
0.00443501
0.00756206
0.0147505
0.0090361
0.00449895
0.0044585
0.00764058
0.0146694
0.00905874
0.00448531
0.00447288
0.00767517
0.0145495
0.00906734
0.00446783
0.00448846
0.00770033
0.014389
0.00906552
0.00444917
0.00449852
0.0077237
0.0141665
0.00905507
0.00442308
0.00450626
0.00772178
0.0139077
0.00903148
0.00438794
0.00450636
0.00770992
0.0136444
0.00899565
0.0043523
0.00450309
0.00768126
0.0133921
0.00896366
0.00430594
0.0044945
0.00761691
0.0131322
0.00892335
0.0042617
0.00447783
0.00753939
0.012875
0.00888561
0.00422127
0.00446042
0.00744345
0.0126197
0.00882913
0.00416329
0.00443543
0.00736081
0.0123742
0.0087794
0.0040833
0.00440735
0.00725051
0.0121116
0.00871099
0.00400154
0.00436602
0.00716123
0.0118774
0.00864773
0.00399091
0.00431711
0.00703558
0.011614
0.00857031
0.00406158
0.00429119
0.0069368
0.0113544
0.00849538
0.00507075
0.00433248
0.00677701
0.0110933
0.00840938
0.00776893
0.00460006
0.00669481
0.010839
0.00832759
0.0100523
0.00530972
0.0066373
0.0105973
0.00823983
0.0119881
0.0062478
0.00668163
0.0103619
0.00815925
0.0133112
0.00713193
0.00677008
0.0101458
0.00807476
0.0144703
0.00802002
0.00698462
0.0099501
0.00800188
0.0151201
0.00885682
0.00707963
0.00978609
0.00793125
0.0159675
0.00949096
0.00733054
0.0096645
0.00787466
0.0165924
0.0101864
0.00768476
0.00958681
0.00782039
0.0171582
0.0106941
0.00803611
0.00950618
0.00778128
0.0179335
0.011246
0.00827884
0.00943744
0.00773606
0.018154
0.0116832
0.00863574
0.00935567
0.00771464
0.0182008
0.0123309
0.00892201
0.00928651
0.00765982
0.0181831
0.0126323
0.0093394
0.00917762
0.00767567
)
;
    }
    walls
    {
        type            kqRWallFunction;
        value           nonuniform List<scalar> 
250
(
0.00683588
0.00684534
0.00684924
0.00684699
0.00685357
0.00701241
0.00698692
0.00700418
0.00701338
0.00702379
0.0071601
0.00708764
0.00709013
0.00710137
0.00712067
0.00721388
0.00718981
0.00717807
0.0071602
0.00717897
0.00723881
0.00723981
0.00724523
0.0072196
0.00721221
0.00728432
0.00726461
0.00729054
0.00728965
0.00727392
0.0073906
0.00732383
0.00732453
0.00731736
0.00735883
0.0075461
0.00745046
0.00740248
0.00737936
0.00738591
0.00771014
0.007574
0.00749786
0.00747868
0.00744215
0.00792048
0.00774824
0.00763948
0.00763462
0.00757247
0.00818263
0.0079605
0.00780909
0.00773726
0.0076787
0.00836995
0.00822285
0.00803004
0.00790205
0.00772131
0.00851757
0.00846712
0.0082556
0.00809447
0.00778812
0.00857023
0.00865369
0.00847823
0.00829485
0.0079074
0.00860939
0.00873095
0.00865811
0.00849503
0.00812182
0.008687
0.0087792
0.00876124
0.00865606
0.00830339
0.00879243
0.00878398
0.00883176
0.00879545
0.00853899
0.00896283
0.00882847
0.00883648
0.00886451
0.00871375
0.00909225
0.00892906
0.0088633
0.00886997
0.00880029
0.00918371
0.00903989
0.00892608
0.00888651
0.00883023
0.00923647
0.00911297
0.00899015
0.00891616
0.00883574
0.00927239
0.00916415
0.00904451
0.0089539
0.00884509
0.00928904
0.00919643
0.00907953
0.00898054
0.00884564
0.00928669
0.00921496
0.00910578
0.0090061
0.00884434
0.00927388
0.00921351
0.00910848
0.00901218
0.00883626
0.00924572
0.00920094
0.00910332
0.0090092
0.00881724
0.00919397
0.0091656
0.00908901
0.0089981
0.00879734
0.00914447
0.00911223
0.00906189
0.00897819
0.00878286
0.00908472
0.00903772
0.00900558
0.00893636
0.00876198
0.00903418
0.00897768
0.0089479
0.00888843
0.00873703
0.00896572
0.00890328
0.00887344
0.00882368
0.00869255
0.00890747
0.00883876
0.00880031
0.00876091
0.00865133
0.00883389
0.00876285
0.00872013
0.00868389
0.00858809
0.00876689
0.00869341
0.00864621
0.00860778
0.00852857
0.00869005
0.0086204
0.00856927
0.00852727
0.00845057
0.00861428
0.00854954
0.0084966
0.00845384
0.00837647
0.00852837
0.00847385
0.00841828
0.00837261
0.00829038
0.00844488
0.00840003
0.00834644
0.00830074
0.0082103
0.00835459
0.00832171
0.00826836
0.00822169
0.00812507
0.00826743
0.00824433
0.00820007
0.00815441
0.00805107
0.00817591
0.00815795
0.00812123
0.00807703
0.0079736
0.00809236
0.00807776
0.00805351
0.00801233
0.0079114
0.00801218
0.0079921
0.007975
0.00793915
0.00785033
0.0079488
0.00792319
0.00791078
0.00788083
0.00780051
0.00788811
0.00785569
0.00784171
0.00781662
0.00775267
0.00784583
0.00781004
0.00779359
0.0077711
0.00771674
0.0077979
0.00775811
0.00773813
0.00771675
0.00767423
0.0077772
0.0077367
0.00771428
0.00769337
0.00765208
0.00771755
0.00768396
0.00765892
0.0076367
0.00760209
0.00773263
0.00770514
0.00767902
0.0076563
0.00761872
)
;
    }
}


// ************************************************************************* //
