/*--------------------------------*- C++ -*----------------------------------*\
| =========                 |                                                 |
| \\      /  F ield         | OpenFOAM: The Open Source CFD Toolbox           |
|  \\    /   O peration     | Version:  4.1                                   |
|   \\  /    A nd           | Web:      www.OpenFOAM.org                      |
|    \\/     M anipulation  |                                                 |
\*---------------------------------------------------------------------------*/
FoamFile
{
    version     2.0;
    format      ascii;
    class       volScalarField;
    location    "200";
    object      nut;
}
// * * * * * * * * * * * * * * * * * * * * * * * * * * * * * * * * * * * * * //

dimensions      [0 2 -1 0 0 0 0];

internalField   nonuniform List<scalar> 
1600
(
0.000617704
0.000646286
0.00066724
0.000682747
0.000696463
0.00069239
0.000681228
0.000682392
0.000698588
0.000719952
0.00073669
0.000747763
0.000756375
0.000758274
0.0007621
0.000762408
0.00075765
0.00074948
0.000742179
0.000736098
0.000732219
0.000729378
0.000727861
0.000727024
0.000727558
0.000728047
0.000728143
0.000728794
0.000728032
0.000727982
0.000727359
0.000724714
0.000716083
0.000708229
0.000713356
0.000732172
0.000932524
0.00146805
0.00190872
0.00228911
0.00257172
0.0028555
0.00304865
0.00328513
0.00349885
0.00364978
0.0038531
0.00385403
0.00359819
0.00379579
0.000618694
0.000649886
0.000664971
0.00067906
0.000693209
0.000691413
0.000695891
0.00069162
0.000696868
0.000706588
0.000727581
0.000744197
0.000759243
0.000760778
0.000761814
0.000760678
0.000755552
0.000747187
0.000739654
0.000733016
0.000729226
0.000727201
0.000726605
0.000726344
0.000726912
0.000727179
0.00072694
0.000727419
0.000726903
0.000726964
0.000726505
0.000724387
0.000715792
0.000707526
0.00071106
0.000731874
0.000914215
0.00144074
0.00190343
0.00227875
0.0025633
0.00284085
0.00303472
0.00327067
0.00348282
0.00363291
0.00383085
0.00384795
0.00359201
0.00379644
0.000620094
0.000654071
0.000678314
0.000691295
0.000705897
0.000700054
0.000703709
0.000713739
0.000711763
0.000721894
0.00073392
0.000748791
0.000765623
0.000767394
0.000766759
0.000766487
0.000762443
0.000755846
0.0007493
0.000741946
0.000736218
0.000732277
0.000730782
0.000730723
0.00073176
0.000732237
0.000731945
0.000731998
0.00073099
0.000730523
0.000730783
0.00072849
0.000719996
0.000711513
0.00071542
0.000735191
0.000919896
0.0014278
0.00190302
0.00228879
0.00258845
0.00285278
0.00304322
0.00327975
0.00349286
0.00364333
0.0038445
0.00386185
0.00358887
0.00379228
0.000619452
0.000643951
0.000686483
0.00069762
0.000703245
0.000704114
0.000689741
0.000698396
0.000703181
0.00070818
0.000725158
0.000741947
0.000763918
0.000771594
0.00077167
0.000766814
0.000759525
0.000750912
0.000745324
0.000740692
0.000737436
0.000734183
0.000731961
0.000730869
0.000731443
0.000732021
0.000732287
0.000732656
0.000731821
0.000730684
0.000730872
0.000728472
0.000720376
0.000711056
0.000714648
0.000735063
0.000916137
0.00141839
0.00188569
0.0022825
0.00257699
0.00284615
0.00303815
0.00327548
0.00349117
0.00364148
0.00384403
0.00384629
0.00358157
0.00378405
0.000620288
0.000640932
0.000672283
0.000691199
0.000693691
0.000688878
0.000686699
0.000691016
0.000709912
0.000713526
0.000725031
0.000734989
0.000747868
0.000760356
0.00076649
0.000766155
0.000758808
0.000748744
0.000740093
0.000733546
0.000730382
0.000728554
0.000727659
0.000727212
0.000727771
0.000728159
0.000728273
0.000728788
0.000727978
0.000727173
0.000727352
0.000724572
0.000716304
0.000707313
0.000712163
0.000732764
0.000936694
0.00145651
0.00188437
0.00227394
0.00256716
0.00284042
0.00303363
0.00327109
0.00348624
0.00363743
0.00384338
0.00384493
0.00359309
0.00378624
0.000657627
0.000789446
0.000870463
0.000876431
0.000852638
0.000837944
0.000794967
0.000697351
0.000680419
0.000684775
0.000694125
0.000687802
0.000673978
0.00064972
0.000710612
0.000665261
0.000656071
0.000662135
0.000673908
0.000691748
0.000709809
0.000727965
0.000741469
0.000755793
0.000771037
0.000787415
0.000801782
0.000812695
0.000817521
0.00082111
0.000821242
0.000822417
0.000821885
0.000820069
0.000814454
0.000817178
0.000821563
0.00087471
0.00101473
0.00121602
0.001395
0.00158473
0.00175281
0.00188528
0.00204464
0.00216223
0.00231489
0.00243449
0.00301893
0.00329193
0.00075075
0.000738384
0.000639567
0.00061133
0.000598339
0.000616644
0.000643352
0.000647128
0.000622
0.000611227
0.000600692
0.00058753
0.000624921
0.000624162
0.000603823
0.0006558
0.000659695
0.000642984
0.000654235
0.000669839
0.000687695
0.000708418
0.000723855
0.000737168
0.000748278
0.0007614
0.000775942
0.000792745
0.000808036
0.000817867
0.000820662
0.000822591
0.000820824
0.000819584
0.000814857
0.00082059
0.000815646
0.000871964
0.00100959
0.00117197
0.00133393
0.00154201
0.0016932
0.00182946
0.00197931
0.00210928
0.00225408
0.00238798
0.00293518
0.00323527
0.000800641
0.000640661
0.000627116
0.000594675
0.000594063
0.000591047
0.000582796
0.000596004
0.000622388
0.000637443
0.000619864
0.000608138
0.000578093
0.000608712
0.000607589
0.000609921
0.000614867
0.000625667
0.000639635
0.000655208
0.000669544
0.000686105
0.000700755
0.000714219
0.000724308
0.000732742
0.000739567
0.000746995
0.000754882
0.000763451
0.000770515
0.000777277
0.000781145
0.000784406
0.000784606
0.000788473
0.00079786
0.000848318
0.000978011
0.00113688
0.00132118
0.00148078
0.00165459
0.00178722
0.00193725
0.00206291
0.00220549
0.00234475
0.00283965
0.00312425
0.000925324
0.000635501
0.0006445
0.000661967
0.000655243
0.000665709
0.000673131
0.000648634
0.000657532
0.000669729
0.000648977
0.000630711
0.000632762
0.000600695
0.000616117
0.000622955
0.000631307
0.000642839
0.00065984
0.000678548
0.000694608
0.000713172
0.000730279
0.000747912
0.000761219
0.000771593
0.000779039
0.000785174
0.000790472
0.000796848
0.000802997
0.00080744
0.000811646
0.00080991
0.00081419
0.000819286
0.000835318
0.000901675
0.00101814
0.00117649
0.00136382
0.00153689
0.00167766
0.00180328
0.00197083
0.00208696
0.00222072
0.00234862
0.00285168
0.00313154
0.00070111
0.000637
0.000588603
0.000632648
0.00065488
0.000649417
0.000608487
0.000725379
0.000633991
0.000654015
0.00063136
0.000608676
0.000600318
0.000608619
0.000620141
0.000629624
0.00063716
0.000641695
0.000647073
0.000656875
0.000668315
0.000680238
0.00068991
0.000699873
0.000709486
0.000719283
0.000727523
0.00073448
0.000739949
0.0007439
0.000748796
0.000751212
0.000753583
0.000752218
0.000751305
0.000752662
0.000770594
0.000825608
0.000963409
0.00112927
0.00128685
0.00144263
0.00161552
0.00174542
0.00190131
0.00202187
0.00215567
0.0022777
0.00273043
0.00298575
0.000672733
0.000631834
0.000636525
0.000622564
0.000605618
0.000588686
0.000606789
0.000643045
0.00067474
0.00069925
0.000744585
0.000813007
0.000877795
0.000942304
0.000996437
0.00104182
0.00109459
0.00114042
0.00119426
0.00124418
0.00127855
0.0013047
0.00132284
0.00134199
0.00136362
0.00138124
0.00139698
0.00140756
0.00141111
0.00141181
0.001407
0.0014054
0.00139862
0.00139566
0.00138421
0.00137828
0.00135924
0.00135403
0.00135709
0.00138301
0.00141663
0.00149992
0.00152846
0.00158405
0.00169127
0.00180144
0.00186817
0.00196099
0.00210226
0.00235183
0.000764462
0.000834335
0.000961666
0.000912404
0.000873555
0.000847702
0.000868167
0.00086868
0.000828829
0.000849058
0.000871469
0.000917703
0.000989051
0.00107864
0.00116149
0.00121632
0.00125696
0.00130199
0.00133925
0.00137245
0.00140192
0.00143042
0.00145274
0.00146663
0.00147925
0.00148975
0.00149677
0.00150499
0.00151195
0.00151737
0.00151276
0.00150866
0.00149649
0.0014937
0.00148012
0.00146831
0.00144304
0.00144608
0.00145147
0.0014744
0.00151229
0.00156917
0.00163423
0.00170148
0.00176679
0.00187501
0.00196221
0.00207597
0.0021802
0.00245922
0.00104531
0.00107569
0.00114936
0.00114938
0.00100057
0.000871294
0.000819007
0.000755492
0.000740497
0.000758816
0.000827311
0.0008774
0.000925842
0.000994043
0.00108495
0.00117802
0.00124121
0.00128534
0.00132261
0.00135568
0.00137891
0.00139628
0.00141382
0.00143063
0.00144422
0.0014571
0.00146696
0.00147409
0.00147654
0.00148214
0.001483
0.00148128
0.00147443
0.00146761
0.00145803
0.00144958
0.00142683
0.00141716
0.00141748
0.00144007
0.00146785
0.00152043
0.00157506
0.0016491
0.00177864
0.0018782
0.00196667
0.00210158
0.00219408
0.0024333
0.00113043
0.00103003
0.000964037
0.000999595
0.00101233
0.000944771
0.000848743
0.000989808
0.000755508
0.000802658
0.000882138
0.000959831
0.00101192
0.0010654
0.00110915
0.00118676
0.00126366
0.0013255
0.00136213
0.00139703
0.00142667
0.00145023
0.00146772
0.00148543
0.00149794
0.00150825
0.00151559
0.00152035
0.00151848
0.00152075
0.00152195
0.00152257
0.00151995
0.00151535
0.00150818
0.00150202
0.00148205
0.00148531
0.00148872
0.00151049
0.00154786
0.00159458
0.00163532
0.00169343
0.0018176
0.00192026
0.0020128
0.00214119
0.00223083
0.00252431
0.00086974
0.000982906
0.000785856
0.000760198
0.000770312
0.000811195
0.000763843
0.000769795
0.000738434
0.000767695
0.0007923
0.000852542
0.000909556
0.000978373
0.00103486
0.00109316
0.00115827
0.00122829
0.0012773
0.00131399
0.00134411
0.00137013
0.00138963
0.0014063
0.00142062
0.00143112
0.00144063
0.0014487
0.00145118
0.00145221
0.00145245
0.0014522
0.00144749
0.00144476
0.00143551
0.001429
0.00140947
0.00140482
0.00141079
0.00143088
0.00146552
0.00151695
0.00155428
0.00164176
0.00175147
0.0018647
0.00194201
0.00206732
0.00215039
0.00244198
0.00115194
0.00192972
0.00255726
0.00236802
0.00197626
0.00159354
0.0016246
0.00178438
0.00192852
0.00207643
0.00230015
0.00261498
0.00286535
0.00302065
0.00305028
0.00308926
0.00311509
0.00318849
0.00326773
0.0032928
0.00331265
0.0033208
0.00332476
0.00332959
0.0033243
0.00330525
0.00327297
0.00324682
0.00321532
0.00318873
0.00316585
0.00314341
0.00311347
0.00308798
0.00305525
0.0030241
0.00299294
0.00296251
0.00292765
0.00288642
0.00284946
0.00281188
0.00279237
0.00278588
0.00280662
0.00281767
0.00285145
0.00284167
0.00283992
0.00258695
0.000770882
0.000811022
0.000943585
0.00112462
0.00126308
0.00139107
0.00156343
0.00180083
0.00205315
0.00222338
0.00231416
0.00244645
0.00259365
0.00271507
0.00277649
0.00277881
0.00278756
0.00276008
0.00275906
0.0027809
0.00280602
0.00281803
0.00281363
0.00280298
0.00279782
0.00279543
0.00278796
0.00277764
0.00275474
0.0027206
0.00268409
0.00264746
0.00261424
0.00258525
0.00255764
0.00252402
0.00249503
0.0024698
0.00245021
0.00242989
0.00241447
0.00239751
0.00238288
0.00236948
0.00236305
0.00236243
0.00236995
0.00237635
0.00239634
0.00240311
0.000792684
0.000798703
0.000896112
0.00105724
0.00127475
0.00143491
0.00161436
0.0018267
0.00212592
0.00235121
0.00249615
0.00255448
0.00263025
0.00271143
0.00281788
0.00287608
0.0029161
0.00293048
0.00291314
0.00290452
0.00291808
0.0029371
0.00294878
0.00294038
0.0029215
0.00290276
0.00288165
0.00286452
0.0028502
0.00283266
0.00280984
0.00278347
0.00274895
0.00271259
0.00267634
0.00263727
0.00259665
0.0025603
0.00253028
0.00250194
0.0024842
0.00246732
0.00246747
0.0024573
0.00245808
0.00245126
0.00245548
0.00246531
0.00247954
0.00244339
0.000793931
0.000812456
0.000877989
0.000996923
0.00120715
0.00145184
0.00161792
0.00176381
0.0019792
0.0022298
0.00245348
0.00257466
0.002623
0.00265009
0.00271428
0.00277166
0.00283079
0.00287404
0.0029059
0.00291696
0.00290496
0.00289919
0.00290094
0.00289819
0.0028823
0.00286848
0.00284951
0.00282965
0.00281056
0.00279296
0.00277171
0.00274781
0.00272351
0.00268686
0.00265772
0.00262354
0.00258767
0.00254783
0.00251386
0.00247754
0.00245099
0.00243026
0.0024273
0.00242142
0.00243621
0.00244432
0.00244823
0.00246199
0.00247266
0.00244254
0.000807404
0.000834959
0.000899577
0.000976502
0.00109969
0.00131006
0.00158022
0.00179087
0.0019784
0.00220898
0.00248816
0.00268121
0.00277613
0.0027922
0.00278765
0.00281428
0.00283735
0.0028816
0.00290498
0.00292734
0.00294886
0.00296081
0.0029691
0.00297525
0.00296658
0.00294121
0.00291362
0.00288674
0.00285513
0.0028268
0.00280002
0.00277364
0.00274652
0.00272764
0.00269952
0.00267514
0.00264414
0.00261346
0.00257719
0.002543
0.0025078
0.00247589
0.00245745
0.00245381
0.00246135
0.00246752
0.00247852
0.00249099
0.002507
0.00243383
0.000207848
0.00021881
0.000226845
0.000231106
0.000233644
0.00023663
0.000241184
0.000245949
0.000251285
0.000259997
0.000270412
0.000277036
0.00028158
0.000282964
0.000284173
0.000287411
0.000291565
0.000297586
0.000302516
0.000305829
0.000308227
0.000310329
0.000312033
0.000312827
0.000313081
0.000312409
0.000310995
0.000309561
0.000308077
0.000306842
0.000305176
0.000303818
0.000302117
0.000300574
0.000298843
0.000296938
0.000294708
0.000292269
0.000289637
0.000286969
0.00028416
0.000281632
0.000279385
0.000277591
0.000276041
0.000274957
0.000274031
0.000273725
0.000272273
0.000270307
0.000208373
0.000222266
0.000229514
0.000234919
0.000238056
0.000239985
0.000242218
0.000246064
0.000248623
0.000254342
0.000262718
0.000272584
0.000281843
0.000288972
0.000291605
0.000293516
0.000294192
0.000296298
0.000300527
0.000304508
0.000307051
0.000308925
0.000310771
0.000312321
0.000313418
0.000313778
0.000313273
0.000311775
0.000309702
0.000308039
0.000306006
0.000304172
0.000302169
0.00030024
0.000298485
0.000296688
0.000294946
0.000293006
0.000290985
0.000288716
0.000286241
0.000283631
0.000281191
0.000279061
0.000277364
0.00027592
0.000274669
0.000274024
0.000272577
0.000270552
0.000207735
0.000220011
0.000227794
0.000232777
0.000235946
0.000238261
0.000240512
0.000243925
0.000246391
0.000249869
0.000254941
0.000262942
0.000271468
0.000280409
0.000287354
0.000291467
0.000294581
0.000294918
0.000296687
0.000299526
0.000302073
0.00030394
0.000305376
0.000306695
0.000307752
0.000308591
0.000309248
0.000309146
0.000308019
0.00030654
0.000304578
0.000302383
0.000300123
0.000297885
0.000295721
0.00029372
0.00029164
0.000289916
0.000287878
0.000286257
0.000284135
0.000282322
0.000280102
0.000278279
0.000276516
0.000275193
0.000273735
0.000273127
0.000271389
0.00026951
0.000208134
0.000220827
0.000228832
0.000233913
0.000237224
0.000239766
0.000241082
0.000244892
0.000249462
0.000254254
0.000256375
0.000261485
0.000267961
0.000275493
0.000283317
0.000289326
0.000294952
0.000297576
0.000298195
0.000299574
0.000301555
0.000303226
0.000304285
0.000305027
0.000305491
0.00030579
0.000306243
0.000306373
0.000305935
0.000305056
0.000303719
0.00030217
0.000300145
0.000297965
0.000295551
0.00029331
0.000290874
0.000288738
0.000286641
0.000284665
0.000282824
0.000280876
0.00027914
0.000277375
0.000275885
0.000274684
0.000273372
0.000272801
0.000270928
0.000268935
0.000206919
0.00021917
0.00022745
0.000232683
0.000236001
0.000238957
0.000240806
0.000241476
0.000244788
0.000250924
0.000254386
0.000255267
0.000257347
0.000261262
0.000269356
0.000276072
0.000285014
0.000291615
0.000295017
0.000296644
0.000297928
0.000299237
0.000300118
0.000300363
0.000300314
0.000299743
0.000299493
0.000299445
0.000299531
0.000299303
0.000298647
0.00029798
0.000296671
0.000295313
0.000293364
0.0002912
0.000288735
0.000286137
0.000283693
0.000281356
0.000279131
0.000277474
0.000275769
0.000274645
0.000273324
0.000272765
0.000271751
0.000271511
0.000269845
0.000267875
0.00183401
0.00100645
0.000741606
0.00093961
0.00111126
0.000810075
0.000944969
0.00233075
0.000928538
0.00120035
0.00143471
0.00125672
0.00114232
0.00120033
0.00273475
0.00149883
0.00169815
0.00123951
0.00122126
0.00122614
0.00123919
0.00232332
0.0018355
0.00165287
0.00122057
0.00123715
0.00127098
0.00128048
0.00201162
0.00178696
0.00175404
0.00120205
0.0012059
0.00131986
0.00134263
0.0017037
0.00184348
0.0017424
0.00125415
0.00129186
0.00141507
0.00145826
0.00166839
0.00190437
0.00201045
0.00138237
0.00146234
0.0015389
0.00156789
0.00180401
0.00222357
0.00253451
0.00159552
0.00165795
0.00175075
0.00177399
0.0019479
0.00259944
0.00243595
0.0018055
0.0018754
0.00195369
0.00197879
0.00214886
0.0024206
0.00246802
0.00201403
0.00209648
0.00212827
0.00216969
0.00235273
0.00261759
0.00262305
0.00224361
0.00232109
0.00228976
0.00232006
0.00266478
0.00289588
0.00297984
0.00248098
0.00252676
0.00246541
0.00251932
0.0028746
0.00320346
0.00324909
0.00263963
0.00266385
0.00262041
0.00264756
0.00298177
0.00338901
0.00342569
0.00275337
0.00274483
0.00270482
0.00270373
0.00304892
0.00334391
0.00338867
0.00282591
0.00282807
0.00272542
0.00273084
0.00311666
0.00332032
0.0033483
0.00288
0.00288452
0.00273982
0.00274582
0.00313848
0.00330778
0.00326445
0.00290703
0.00292224
0.00274306
0.00275186
0.00326696
0.00320306
0.00326263
0.00296818
0.00298206
0.0027974
0.00280718
0.00330268
0.00329687
0.00328547
0.00301475
0.00302706
0.0028458
0.00284435
0.00330934
0.0033013
0.00328947
0.00304074
0.00304503
0.00287204
0.00286413
0.00332736
0.00330292
0.00330758
0.00306557
0.00306677
0.00288008
0.00287516
0.00334437
0.00329927
0.00331297
0.00307615
0.0030792
0.00287446
0.00287413
0.00335531
0.00329166
0.00330919
0.00307806
0.00308295
0.00286907
0.00287223
0.00335994
0.00328936
0.00330433
0.00307845
0.00308071
0.00287039
0.00287337
0.00334452
0.00329429
0.00329892
0.00307343
0.00306897
0.00287572
0.00287424
0.00331561
0.00328325
0.00328089
0.00306222
0.00304918
0.0028724
0.00286629
0.00328115
0.00325705
0.00325489
0.00304323
0.00302957
0.00285615
0.00284668
0.00325734
0.0032192
0.00322989
0.00302991
0.00301457
0.0028334
0.00282081
0.00323041
0.00318748
0.00319502
0.003012
0.00299866
0.00280307
0.00278881
0.00320446
0.00314399
0.0031492
0.0029946
0.0029826
0.00277427
0.00276062
0.003185
0.00310544
0.00311147
0.0029751
0.00296509
0.00274768
0.00273565
0.00316206
0.0030661
0.00307237
0.00295048
0.00294085
0.00271805
0.0027086
0.00313017
0.00303825
0.00303941
0.00292021
0.00291073
0.00268865
0.00267915
0.00310822
0.00299745
0.00300625
0.0028905
0.0028822
0.00265576
0.00265261
0.00307341
0.00297777
0.00298099
0.00285401
0.00284444
0.00262673
0.00262142
0.0030428
0.00293889
0.00294566
0.00282061
0.0028092
0.00259659
0.00259251
0.00301025
0.00291905
0.00292313
0.002782
0.00277027
0.00257063
0.00256646
0.00297475
0.00288531
0.00289319
0.00275212
0.0027361
0.00254597
0.00254133
0.00293721
0.00286426
0.00286862
0.00271591
0.00269977
0.00252247
0.00251552
0.00289394
0.00281951
0.00283003
0.00268228
0.00266474
0.00249169
0.00248376
0.00285331
0.00279446
0.0028
0.00265699
0.0026397
0.0024682
0.00246058
0.00282413
0.00274379
0.00276567
0.00263229
0.00261857
0.0024403
0.00243321
0.00280652
0.00273007
0.00274453
0.00262214
0.00261371
0.00242013
0.00241793
0.00280883
0.00269976
0.00272981
0.00262819
0.00262409
0.0024141
0.002413
0.00281959
0.00271776
0.00272309
0.00264924
0.00264229
0.00242103
0.00242061
0.00283994
0.00269592
0.00271902
0.00266635
0.00266299
0.00242887
0.00242593
0.00285524
0.00273727
0.00273635
0.00268751
0.00268163
0.00243449
0.00243167
0.00285385
0.00269094
0.00270178
0.00270904
0.00272034
0.00245335
0.00245319
0.00286035
0.00273703
0.00264398
0.00271334
0.00277678
0.00246771
0.00248365
0.00266828
0.00253111
0.00255763
0.00262589
0.00280615
0.00257834
0.00250358
)
;

boundaryField
{
    inlet
    {
        type            calculated;
        value           nonuniform List<scalar> 
28
(
0.000602869
0.000603454
0.000604725
0.00060446
0.000605443
0.00071221
0.000673176
0.000645627
0.000723857
0.0006611
0.00065575
0.00108289
0.00110679
0.00110311
0.000852646
0.00119663
0.000770736
0.000794031
0.000797946
0.000805911
0.000222212
0.000221833
0.000221466
0.000221804
0.000220188
0.000941601
0.000857662
0.00123927
)
;
    }
    outlet
    {
        type            calculated;
        value           nonuniform List<scalar> 
28
(
0.00393637
0.00391598
0.00391856
0.00391518
0.00392416
0.00312524
0.00306683
0.00297421
0.00297957
0.00285018
0.00236556
0.00246678
0.00245391
0.00255003
0.0024812
0.00272436
0.00242125
0.00246721
0.00246422
0.00245974
0.000270589
0.000270885
0.000269829
0.000269273
0.000268207
0.00265997
0.00250359
0.00280566
)
;
    }
    side1
    {
        type            cyclicAMI;
        value           nonuniform List<scalar> 
400
(
0.000618996
0.000679369
0.000771237
0.00104224
0.000207384
0.000643609
0.000713223
0.00080737
0.00158115
0.00021899
0.000669761
0.000729533
0.000711191
0.00202947
0.000227148
0.000686973
0.00075454
0.000691381
0.00192497
0.000231894
0.000695077
0.000753759
0.000687965
0.00169717
0.000234822
0.000690634
0.00074368
0.000699941
0.00150328
0.000237793
0.000683963
0.000701727
0.000685316
0.00161047
0.000240995
0.000686704
0.000711365
0.00070642
0.00178645
0.000243712
0.00070425
0.000657205
0.000706587
0.0019444
0.000248037
0.000716739
0.000669395
0.000733472
0.00211863
0.000255461
0.000730861
0.000662743
0.000768442
0.00236001
0.000262399
0.000741376
0.000648239
0.000832774
0.00263607
0.000266151
0.000752122
0.000637148
0.000893675
0.00283694
0.000269463
0.000759315
0.000629169
0.000960338
0.00294791
0.000272113
0.000764295
0.000665376
0.00101565
0.00296666
0.000276764
0.000764282
0.000647442
0.00106749
0.00300171
0.000281741
0.000758229
0.000646615
0.00112643
0.00302666
0.00028829
0.000749112
0.000651915
0.00118435
0.00309078
0.000294601
0.000741136
0.00066049
0.00123578
0.00315224
0.000298767
0.000734822
0.000674312
0.00127908
0.00317644
0.000301237
0.000731301
0.000689062
0.00131133
0.00319682
0.000303077
0.000728966
0.000704101
0.00133742
0.00320618
0.000304783
0.00072776
0.00071569
0.00135623
0.00321152
0.000306075
0.000727118
0.000727833
0.00137414
0.00321677
0.000306595
0.000727664
0.000740261
0.00139212
0.0032104
0.000306697
0.000728103
0.000753349
0.00140618
0.00318934
0.000306076
0.000728208
0.000764653
0.00141881
0.00315856
0.000305244
0.000728791
0.000773588
0.00142813
0.00313217
0.000304503
0.000728005
0.000778735
0.00143115
0.00310064
0.000303804
0.000727578
0.000782505
0.00143201
0.00307349
0.000303073
0.000727355
0.000785019
0.00142973
0.00304937
0.000301912
0.000724643
0.000786814
0.0014288
0.00302568
0.000300899
0.000716193
0.000787734
0.00142306
0.00299664
0.000299394
0.000707771
0.000786144
0.00142021
0.00297325
0.000297944
0.000712759
0.000782879
0.00140986
0.00294199
0.000296104
0.000732468
0.00078492
0.00140364
0.00291299
0.000294069
0.000934609
0.000796079
0.00138436
0.00288188
0.000291721
0.00146228
0.000850159
0.00137943
0.00285138
0.000289203
0.00189655
0.000989071
0.00138394
0.00281607
0.000286665
0.00228153
0.00117264
0.00140694
0.00277708
0.000284162
0.00256944
0.00134093
0.00144108
0.00274068
0.000281645
0.00284796
0.00151368
0.00150843
0.0027049
0.000279553
0.00304114
0.00168416
0.00154137
0.00268573
0.000277577
0.00327811
0.00181535
0.00161291
0.00268015
0.000276118
0.00349254
0.00197297
0.00172137
0.00269669
0.000274682
0.0036436
0.00209205
0.00183307
0.00270619
0.000273861
0.00384824
0.00223528
0.00190509
0.00273271
0.000272891
0.00384948
0.0023561
0.00201416
0.00273002
0.000272618
0.00359564
0.00287468
0.00212633
0.00273392
0.000271059
0.00379101
0.00313884
0.00239691
0.0025382
0.000269091
0.00150715
0.00100602
0.000893819
0.0018545
0.00111064
0.00122698
0.00215044
0.00110984
0.00112177
0.00189451
0.00114687
0.00113603
0.00172127
0.00116912
0.0011666
0.00157837
0.00129816
0.00127351
0.00164032
0.00150317
0.0014509
0.00179982
0.00170399
0.00166318
0.00195761
0.00191108
0.00186538
0.002168
0.00213544
0.00208155
0.00239585
0.00237895
0.00232831
0.00267001
0.00258026
0.00255033
0.00284325
0.00270274
0.00268691
0.00292141
0.00276124
0.00276682
0.00296573
0.00281407
0.00281266
0.00302038
0.0028602
0.00285724
0.0030426
0.00289284
0.0028829
0.00314426
0.00294726
0.00293819
0.00317606
0.00298478
0.00297673
0.00318772
0.00300427
0.00300146
0.00320685
0.00302593
0.00302515
0.00322225
0.0030382
0.0030362
0.00323234
0.00304351
0.00304032
0.00323745
0.00304418
0.0030427
0.00322419
0.0030335
0.00303642
0.0031964
0.00301178
0.0030203
0.00316413
0.00298941
0.00299834
0.00313935
0.00297029
0.00298032
0.00311092
0.00294895
0.00295767
0.00308422
0.00292863
0.00293648
0.00306242
0.00290791
0.00291446
0.00303839
0.00288293
0.00288923
0.00300802
0.00285385
0.00286005
0.00298705
0.00282867
0.00283409
0.00295436
0.00279424
0.0028005
0.00292574
0.00276277
0.00277023
0.00289368
0.00272659
0.00273425
0.00285972
0.00269362
0.0027041
0.00282258
0.00265731
0.00266787
0.0027822
0.00262257
0.00263404
0.0027433
0.00259402
0.00260532
0.00271325
0.00256915
0.00257812
0.00269538
0.00255959
0.0025651
0.00269579
0.00256511
0.00256779
0.00270553
0.00257962
0.00258416
0.00272137
0.00259529
0.00259748
0.00273529
0.00261128
0.00261512
0.00273831
0.0026409
0.00263352
0.00274784
0.00268334
0.00264187
0.00259363
0.00267719
0.00255937
)
;
    }
    side2
    {
        type            cyclicAMI;
        value           nonuniform List<scalar> 
250
(
0.000618996
0.000679369
0.000771237
0.00110891
0.000207384
0.000643609
0.000713223
0.00080737
0.00143757
0.00021899
0.000669761
0.000729533
0.000711191
0.00159268
0.000227148
0.000686973
0.00075454
0.000691381
0.00151755
0.000231894
0.000695077
0.000753759
0.000687965
0.00143287
0.000234822
0.000690634
0.00074368
0.000699941
0.00141066
0.000237793
0.000683963
0.000701727
0.000685316
0.00154966
0.000240995
0.000686704
0.000711365
0.00070642
0.00173721
0.000243712
0.00070425
0.000657205
0.000706587
0.00191896
0.000248037
0.000716739
0.000669395
0.000733472
0.00212554
0.000255461
0.000730861
0.000662743
0.000768442
0.00236553
0.000262399
0.000741376
0.000648239
0.000832774
0.00260825
0.000266151
0.000752122
0.000637148
0.000893675
0.00276594
0.000269463
0.000759315
0.000629169
0.000960338
0.00284756
0.000272113
0.000764295
0.000665376
0.00101565
0.00288818
0.000276764
0.000764282
0.000647442
0.00106749
0.00293329
0.000281741
0.000758229
0.000646615
0.00112643
0.00295971
0.00028829
0.000749112
0.000651915
0.00118435
0.00302829
0.000294601
0.000741136
0.00066049
0.00123578
0.00307053
0.000298767
0.000734822
0.000674312
0.00127908
0.0030906
0.000301237
0.000731301
0.000689062
0.00131133
0.00311184
0.000303077
0.000728966
0.000704101
0.00133742
0.00312385
0.000304783
0.00072776
0.00071569
0.00135623
0.00313004
0.000306075
0.000727118
0.000727833
0.00137414
0.00313335
0.000306595
0.000727664
0.000740261
0.00139212
0.00312422
0.000306697
0.000728103
0.000753349
0.00140618
0.0031026
0.000306076
0.000728208
0.000764653
0.00141881
0.00307586
0.000305244
0.000728791
0.000773588
0.00142813
0.00305385
0.000304503
0.000728005
0.000778735
0.00143115
0.00302795
0.000303804
0.000727578
0.000782505
0.00143201
0.00300417
0.000303073
0.000727355
0.000785019
0.00142973
0.00298203
0.000301912
0.000724643
0.000786814
0.0014288
0.00295753
0.000300899
0.000716193
0.000787734
0.00142306
0.00292812
0.000299394
0.000707771
0.000786144
0.00142021
0.00290421
0.000297944
0.000712759
0.000782879
0.00140986
0.00287119
0.000296104
0.000732468
0.00078492
0.00140364
0.00284133
0.000294069
0.000934609
0.000796079
0.00138436
0.00280745
0.000291721
0.00146228
0.000850159
0.00137943
0.00277556
0.000289203
0.00189655
0.000989071
0.00138394
0.00273932
0.000286665
0.00228153
0.00117264
0.00140694
0.00270239
0.000284162
0.00256944
0.00134093
0.00144108
0.00266934
0.000281645
0.00284796
0.00151368
0.00150843
0.00263994
0.000279553
0.00304114
0.00168416
0.00154137
0.00262511
0.000277577
0.00327811
0.00181535
0.00161291
0.00262594
0.000276118
0.00349254
0.00197297
0.00172137
0.00264025
0.000274682
0.0036436
0.00209205
0.00183307
0.00265385
0.000273861
0.00384824
0.00223528
0.00190509
0.00267234
0.000272891
0.00384948
0.0023561
0.00201416
0.00268467
0.000272618
0.00359564
0.00287468
0.00212633
0.00270092
0.000271059
0.00379101
0.00313884
0.00239691
0.00259265
0.000269091
)
;
    }
    walls
    {
        type            nutkWallFunction;
        Cmu             0.09;
        kappa           0.41;
        E               9.8;
        value           nonuniform List<scalar> 
250
(
8.76753e-05
8.77304e-05
8.77531e-05
8.774e-05
8.77784e-05
8.86981e-05
8.85512e-05
8.86506e-05
8.87036e-05
8.87636e-05
8.95432e-05
8.91297e-05
8.91439e-05
8.92082e-05
8.93185e-05
8.98485e-05
8.97119e-05
8.96452e-05
8.95436e-05
8.96504e-05
8.99896e-05
8.99952e-05
9.00258e-05
8.98808e-05
8.9839e-05
9.02465e-05
9.01353e-05
9.02815e-05
9.02765e-05
9.01879e-05
9.08432e-05
9.04688e-05
9.04727e-05
9.04325e-05
9.06654e-05
9.17078e-05
9.11771e-05
9.09095e-05
9.07803e-05
9.0817e-05
9.26095e-05
9.18618e-05
9.14405e-05
9.13341e-05
9.11309e-05
9.37505e-05
9.28173e-05
9.22223e-05
9.21956e-05
9.18535e-05
9.51497e-05
9.39656e-05
9.31482e-05
9.27575e-05
9.24375e-05
9.61346e-05
9.53621e-05
9.43381e-05
9.36511e-05
9.26705e-05
9.69023e-05
9.66407e-05
9.55347e-05
9.46818e-05
9.30344e-05
9.71744e-05
9.76038e-05
9.66983e-05
9.57411e-05
9.368e-05
9.73762e-05
9.79993e-05
9.76264e-05
9.67855e-05
9.48273e-05
9.77746e-05
9.82454e-05
9.81538e-05
9.76159e-05
9.5786e-05
9.83127e-05
9.82697e-05
9.85125e-05
9.83281e-05
9.70131e-05
9.91752e-05
9.84958e-05
9.85365e-05
9.86786e-05
9.79115e-05
9.98242e-05
9.90049e-05
9.86724e-05
9.87062e-05
9.83527e-05
0.00010028
9.95621e-05
9.89898e-05
9.87899e-05
9.85048e-05
0.000100542
9.99275e-05
9.93125e-05
9.89398e-05
9.85328e-05
0.000100719
0.000100183
9.95853e-05
9.91301e-05
9.85802e-05
0.000100802
0.000100343
9.97605e-05
9.92642e-05
9.8583e-05
0.00010079
0.000100435
9.98916e-05
9.93926e-05
9.85764e-05
0.000100727
0.000100428
9.99051e-05
9.94232e-05
9.85354e-05
0.000100587
0.000100365
9.98794e-05
9.94082e-05
9.84389e-05
0.000100331
0.00010019
9.98079e-05
9.93524e-05
9.83377e-05
0.000100085
9.99238e-05
9.96723e-05
9.92523e-05
9.8264e-05
9.97866e-05
9.95513e-05
9.939e-05
9.90417e-05
9.81577e-05
9.95336e-05
9.92498e-05
9.90998e-05
9.87997e-05
9.80304e-05
9.91897e-05
9.88747e-05
9.87237e-05
9.84715e-05
9.7803e-05
9.88959e-05
9.85481e-05
9.83527e-05
9.81522e-05
9.75918e-05
9.85234e-05
9.81621e-05
9.7944e-05
9.77586e-05
9.72665e-05
9.81827e-05
9.78074e-05
9.75653e-05
9.73678e-05
9.69592e-05
9.77902e-05
9.74327e-05
9.71693e-05
9.69524e-05
9.65548e-05
9.74013e-05
9.70676e-05
9.67936e-05
9.65717e-05
9.61686e-05
9.69582e-05
9.66756e-05
9.63866e-05
9.61484e-05
9.57177e-05
9.65252e-05
9.62915e-05
9.60115e-05
9.5772e-05
9.52959e-05
9.60543e-05
9.5882e-05
9.56018e-05
9.53559e-05
9.48445e-05