/*--------------------------------*- C++ -*----------------------------------*\
| =========                 |                                                 |
| \\      /  F ield         | OpenFOAM: The Open Source CFD Toolbox           |
|  \\    /   O peration     | Version:  4.1                                   |
|   \\  /    A nd           | Web:      www.OpenFOAM.org                      |
|    \\/     M anipulation  |                                                 |
\*---------------------------------------------------------------------------*/
FoamFile
{
    version     2.0;
    format      ascii;
    class       volScalarField;
    location    "200";
    object      p;
}
// * * * * * * * * * * * * * * * * * * * * * * * * * * * * * * * * * * * * * //

dimensions      [0 2 -2 0 0 0 0];

internalField   nonuniform List<scalar> 
1600
(
-0.160522
-0.162928
-0.164917
-0.164488
-0.164817
-0.164625
-0.163064
-0.160638
-0.158028
-0.154725
-0.151299
-0.14763
-0.144018
-0.141039
-0.138441
-0.135866
-0.1338
-0.131613
-0.129281
-0.126937
-0.124512
-0.12203
-0.119493
-0.116955
-0.114325
-0.111828
-0.109275
-0.106974
-0.104671
-0.102655
-0.100649
-0.0989371
-0.0973092
-0.0959176
-0.0945725
-0.093406
-0.0924646
-0.0913417
-0.0899177
-0.0888245
-0.0871587
-0.0861132
-0.0843432
-0.0831701
-0.0811267
-0.0794384
-0.0762742
-0.072093
-0.0619585
-0.0549133
-0.160587
-0.162957
-0.165009
-0.16464
-0.164915
-0.164679
-0.163093
-0.160629
-0.157989
-0.154739
-0.151346
-0.147707
-0.144087
-0.141075
-0.138475
-0.135891
-0.133822
-0.131641
-0.129321
-0.126982
-0.124556
-0.12207
-0.119528
-0.11699
-0.11436
-0.111864
-0.10931
-0.107007
-0.104703
-0.102684
-0.100677
-0.0989663
-0.0973366
-0.0959446
-0.0946005
-0.093432
-0.0924955
-0.0913799
-0.0899636
-0.0888755
-0.0872126
-0.0861668
-0.0843923
-0.0832214
-0.0811769
-0.0794878
-0.0763229
-0.0721338
-0.0619978
-0.0549429
-0.160574
-0.162945
-0.164987
-0.164631
-0.164871
-0.164664
-0.163091
-0.160636
-0.157949
-0.154621
-0.151249
-0.147629
-0.144057
-0.141061
-0.138495
-0.135912
-0.13383
-0.131631
-0.129302
-0.126964
-0.124544
-0.122063
-0.119523
-0.116984
-0.114354
-0.111859
-0.109307
-0.107007
-0.104704
-0.102685
-0.100677
-0.0989642
-0.0973335
-0.0959414
-0.0945954
-0.0934248
-0.0924903
-0.0913751
-0.0899572
-0.088875
-0.0872194
-0.0861741
-0.0843965
-0.0832271
-0.0811773
-0.079485
-0.0763142
-0.0721257
-0.0619827
-0.05493
-0.160535
-0.162976
-0.164952
-0.164519
-0.164805
-0.164562
-0.162973
-0.160588
-0.158029
-0.154718
-0.151306
-0.147658
-0.144024
-0.141021
-0.138422
-0.135873
-0.133806
-0.131617
-0.129287
-0.126943
-0.124519
-0.122039
-0.119499
-0.11696
-0.114329
-0.111833
-0.10928
-0.106979
-0.104677
-0.102658
-0.100653
-0.0989419
-0.0973123
-0.0959218
-0.0945741
-0.093402
-0.0924572
-0.0913294
-0.0899013
-0.088813
-0.0871544
-0.086109
-0.0843346
-0.0831637
-0.0811162
-0.0794225
-0.0762564
-0.0720709
-0.0619331
-0.0548907
-0.160506
-0.16295
-0.165013
-0.164526
-0.164885
-0.164621
-0.162986
-0.160558
-0.157957
-0.1547
-0.151294
-0.147657
-0.144082
-0.141071
-0.138451
-0.135874
-0.133803
-0.131613
-0.129287
-0.126953
-0.124532
-0.122051
-0.11951
-0.11697
-0.114338
-0.111842
-0.109289
-0.106988
-0.104684
-0.102667
-0.10066
-0.0989483
-0.0973204
-0.0959301
-0.0945835
-0.0934165
-0.0924746
-0.0913505
-0.0899241
-0.0888343
-0.0871749
-0.0861322
-0.0843655
-0.0831929
-0.0811521
-0.0794588
-0.0762912
-0.0721108
-0.0619632
-0.0549221
-0.118659
-0.121512
-0.125794
-0.127094
-0.127244
-0.126007
-0.123615
-0.121543
-0.119622
-0.116802
-0.114096
-0.111717
-0.109274
-0.107162
-0.10509
-0.102723
-0.100641
-0.0983612
-0.0958538
-0.0934142
-0.0910186
-0.088693
-0.0864479
-0.0843611
-0.0823444
-0.0805339
-0.0787678
-0.0772206
-0.0756841
-0.0743769
-0.0730624
-0.0720028
-0.0709536
-0.07012
-0.0692659
-0.0687734
-0.0680392
-0.067699
-0.0669839
-0.0666156
-0.0657724
-0.0653001
-0.0643543
-0.0637396
-0.0626908
-0.0617041
-0.0599044
-0.0567044
-0.0501209
-0.0430139
-0.118519
-0.122691
-0.127123
-0.127851
-0.127962
-0.127019
-0.124412
-0.121742
-0.119687
-0.117009
-0.114523
-0.112371
-0.109919
-0.107578
-0.105486
-0.103049
-0.100972
-0.09869
-0.0962264
-0.093771
-0.0913382
-0.0890062
-0.0867713
-0.0846903
-0.0826732
-0.0808524
-0.0790745
-0.0775057
-0.0759574
-0.0746485
-0.0733326
-0.0722702
-0.0712089
-0.0703685
-0.0695138
-0.0690169
-0.0682744
-0.0679178
-0.0672025
-0.0668163
-0.0659719
-0.0654956
-0.0645339
-0.063916
-0.0628621
-0.0618729
-0.0600541
-0.0567918
-0.0502767
-0.0431697
-0.119074
-0.122644
-0.12721
-0.127841
-0.128862
-0.127557
-0.125884
-0.122934
-0.120304
-0.117279
-0.114682
-0.112312
-0.109993
-0.108099
-0.105807
-0.103463
-0.101354
-0.0990333
-0.0965793
-0.0940864
-0.091615
-0.0892278
-0.0869724
-0.0848893
-0.0828749
-0.0810641
-0.0792969
-0.0777421
-0.0762056
-0.0748975
-0.0735796
-0.0724957
-0.0714183
-0.0705616
-0.0696978
-0.0691949
-0.0684526
-0.0681078
-0.0673951
-0.0670301
-0.0661996
-0.0657272
-0.0647816
-0.0641554
-0.0630942
-0.0620825
-0.0602523
-0.0569534
-0.0504536
-0.0433353
-0.119177
-0.122361
-0.127375
-0.127792
-0.128156
-0.126791
-0.12481
-0.122741
-0.119545
-0.116995
-0.114407
-0.112229
-0.109947
-0.107568
-0.105657
-0.103164
-0.10104
-0.0987645
-0.0963076
-0.093865
-0.091438
-0.0890783
-0.086813
-0.0847177
-0.0826967
-0.0808824
-0.079108
-0.0775491
-0.0760053
-0.0746975
-0.0733853
-0.0723198
-0.0712607
-0.0704254
-0.0695649
-0.0690612
-0.0683136
-0.0679599
-0.0672362
-0.0668586
-0.0660286
-0.0655595
-0.0646153
-0.0640136
-0.0629538
-0.0619633
-0.0601696
-0.0569269
-0.0504133
-0.0433014
-0.119239
-0.122441
-0.127655
-0.129224
-0.128796
-0.127911
-0.125561
-0.122892
-0.120499
-0.117024
-0.114557
-0.112462
-0.110238
-0.108153
-0.106103
-0.103713
-0.10157
-0.0992329
-0.0967452
-0.0943098
-0.0919005
-0.0895552
-0.0872792
-0.0851593
-0.0831141
-0.0812815
-0.0794982
-0.0779327
-0.0763781
-0.0750587
-0.0737325
-0.0726604
-0.0715996
-0.0707609
-0.0698969
-0.0693913
-0.0686536
-0.0683085
-0.067592
-0.0672234
-0.0663831
-0.0659077
-0.0649537
-0.0643371
-0.0632656
-0.0622572
-0.0604572
-0.0571938
-0.050588
-0.0434889
-0.0428882
-0.0430749
-0.0421673
-0.0464168
-0.0515459
-0.0512412
-0.0516342
-0.0469964
-0.0443282
-0.0414594
-0.0388936
-0.0354168
-0.0321113
-0.0298963
-0.0276495
-0.025297
-0.0235168
-0.0217309
-0.0201383
-0.019123
-0.0185574
-0.0182241
-0.0179851
-0.017736
-0.0174998
-0.0173732
-0.0172962
-0.0173818
-0.0174641
-0.0176445
-0.0177497
-0.0180466
-0.018333
-0.0187992
-0.0192089
-0.0197892
-0.0202075
-0.0208666
-0.0213772
-0.0221318
-0.0226778
-0.0234288
-0.0239423
-0.024624
-0.0251131
-0.0256156
-0.0258772
-0.0255431
-0.0232274
-0.022288
-0.0420874
-0.0491486
-0.0461011
-0.0482615
-0.0489119
-0.0499111
-0.0474637
-0.0442409
-0.0416814
-0.0389155
-0.0369728
-0.0350093
-0.0325671
-0.0297952
-0.0282943
-0.0258854
-0.0245178
-0.0227121
-0.0213009
-0.0201279
-0.0193302
-0.0187928
-0.0184824
-0.018242
-0.0180404
-0.0179414
-0.0178797
-0.0179633
-0.0180846
-0.0182637
-0.0183846
-0.0186526
-0.0189036
-0.0192893
-0.0196627
-0.0202015
-0.0206125
-0.0212718
-0.0217656
-0.0225198
-0.0230424
-0.0238203
-0.0242682
-0.024987
-0.0254717
-0.0259517
-0.0261178
-0.0257114
-0.0235216
-0.0228845
-0.0410578
-0.0445307
-0.0393069
-0.0386154
-0.0404242
-0.042169
-0.0423984
-0.0416933
-0.0402698
-0.0377826
-0.037348
-0.0339755
-0.0307406
-0.0282893
-0.0250775
-0.0225473
-0.0210073
-0.0195348
-0.0183477
-0.0173803
-0.0167958
-0.0164672
-0.0162641
-0.0160491
-0.0158504
-0.0157408
-0.0156865
-0.0157816
-0.0159352
-0.0161361
-0.0163334
-0.0166724
-0.017027
-0.017498
-0.0179378
-0.0185098
-0.0189615
-0.0196289
-0.0201657
-0.0209031
-0.0214719
-0.0222446
-0.0227509
-0.0234638
-0.0239824
-0.0244711
-0.0247177
-0.0243945
-0.0223564
-0.0220258
-0.041265
-0.0445571
-0.0404704
-0.0422641
-0.0444155
-0.0449111
-0.0453928
-0.0445642
-0.0452129
-0.0422641
-0.0384147
-0.0346351
-0.0322209
-0.0297168
-0.0269272
-0.0240504
-0.0219151
-0.0203533
-0.0191821
-0.0184918
-0.0179156
-0.0175172
-0.0172024
-0.0169415
-0.0167366
-0.0165958
-0.0165074
-0.0165205
-0.0165643
-0.0167533
-0.0169636
-0.0173288
-0.0176851
-0.0181536
-0.0185636
-0.0191192
-0.019563
-0.0202161
-0.0207566
-0.0214851
-0.0220416
-0.0227436
-0.0232761
-0.0239138
-0.0244359
-0.0249131
-0.0252013
-0.0248509
-0.0227523
-0.0223779
-0.0405211
-0.0405649
-0.040562
-0.0418019
-0.0465352
-0.0474419
-0.0459343
-0.0446457
-0.0436568
-0.0419611
-0.0383787
-0.0351019
-0.0318628
-0.0292229
-0.0267362
-0.023977
-0.0220478
-0.0202993
-0.0190479
-0.0182822
-0.0176768
-0.0171898
-0.016844
-0.0166055
-0.016469
-0.0164152
-0.0164136
-0.016492
-0.0165595
-0.0167211
-0.0168659
-0.0171644
-0.0174857
-0.0179192
-0.0183409
-0.0188996
-0.0193567
-0.0200285
-0.0205789
-0.0213514
-0.0219157
-0.0226547
-0.0231922
-0.0238177
-0.0243524
-0.0248011
-0.0251074
-0.0247969
-0.0225784
-0.0222787
0.0475844
0.0524952
0.058984
0.0632261
0.0595672
0.0522203
0.0464824
0.0455936
0.0483492
0.0497686
0.0514486
0.0531113
0.0559452
0.0565744
0.0564973
0.0559836
0.0545222
0.0523644
0.0517326
0.0498917
0.0482247
0.0465894
0.0449004
0.0431878
0.0415465
0.0399186
0.0383586
0.0366923
0.035142
0.0334862
0.0318422
0.0301455
0.0285229
0.0268347
0.0251973
0.0234991
0.0218719
0.0202653
0.0186243
0.0170817
0.0153488
0.0139191
0.0121426
0.0107981
0.00893168
0.00757899
0.0056347
0.00407562
0.00249425
-0.00238774
0.0720203
0.043405
0.0419039
0.0493959
0.053168
0.0543205
0.0561834
0.0635796
0.0717374
0.0794248
0.0788591
0.0779216
0.0783098
0.0765407
0.0743623
0.0712876
0.0681093
0.0655526
0.0630048
0.0613518
0.0598188
0.0581859
0.05617
0.054029
0.0518842
0.0498433
0.0478635
0.0459894
0.0438964
0.0416527
0.0397344
0.0378468
0.0361165
0.0343108
0.0325189
0.030582
0.0287534
0.0268481
0.025059
0.0231727
0.0213542
0.0194356
0.0176813
0.0155781
0.0135374
0.0115992
0.00974239
0.00757466
0.00472613
0.000228515
0.0731553
0.0444229
0.0477843
0.0551828
0.0631884
0.0691893
0.0750744
0.080135
0.0855676
0.0898202
0.0849091
0.0856911
0.0844451
0.0806191
0.0778025
0.0746549
0.0717196
0.0689172
0.066284
0.0646861
0.063174
0.0618138
0.0597502
0.0574123
0.0550015
0.0524439
0.0500559
0.0477208
0.0455015
0.0433857
0.0415381
0.0396973
0.0379507
0.0361356
0.0343292
0.0323618
0.0305336
0.0284836
0.0266631
0.0245734
0.0226746
0.0205159
0.0185779
0.0164272
0.0143639
0.012286
0.0103655
0.00825332
0.00546923
0.000291272
0.0729788
0.045265
0.0410932
0.0506456
0.0590831
0.0651847
0.0697398
0.0729721
0.0761813
0.0778332
0.0817628
0.0812569
0.0801117
0.0773824
0.0746788
0.0720317
0.0695493
0.0668681
0.0648784
0.0623892
0.0598346
0.057726
0.0560652
0.0544951
0.0527892
0.0509098
0.0488961
0.0467742
0.0447022
0.042592
0.0405206
0.0383804
0.0363917
0.0343639
0.0325889
0.0307521
0.029059
0.0272626
0.0254733
0.0237186
0.0218085
0.0200671
0.0181552
0.0163796
0.0145286
0.0124982
0.0104725
0.00841077
0.0056595
9.16513e-05
0.0740262
0.0509783
0.0561023
0.0603744
0.0659038
0.0725896
0.0793402
0.081792
0.0822896
0.0833496
0.0839271
0.0844343
0.0839233
0.0815197
0.0788269
0.076635
0.0738167
0.0704914
0.067906
0.065337
0.0628754
0.0607738
0.0588783
0.0570405
0.0551298
0.0530957
0.0509413
0.0487031
0.0465182
0.0443696
0.0422426
0.0401268
0.0381317
0.0361568
0.0343303
0.0324834
0.0307208
0.0289188
0.0270687
0.0252255
0.0232775
0.0213475
0.0193513
0.0174311
0.0154494
0.0133514
0.0112609
0.0089439
0.00643928
0.000108159
0.252896
0.26044
0.257922
0.25578
0.251191
0.244935
0.239133
0.229167
0.220673
0.212353
0.204986
0.196172
0.187622
0.182139
0.177817
0.173529
0.16962
0.164773
0.158357
0.153334
0.148731
0.144117
0.139533
0.135067
0.130664
0.126487
0.122379
0.118533
0.114426
0.110203
0.106213
0.102512
0.0989887
0.0956702
0.0923406
0.0890645
0.0856893
0.0824994
0.0791751
0.0761353
0.0728613
0.0699704
0.0667823
0.0636727
0.0603551
0.0572163
0.0538092
0.0492388
0.042212
0.0319719
0.266129
0.293418
0.290461
0.28021
0.27
0.259029
0.247032
0.234628
0.223127
0.21414
0.208638
0.202405
0.194181
0.187247
0.181494
0.176485
0.171704
0.169549
0.16439
0.159379
0.154564
0.149893
0.145264
0.140518
0.135709
0.13095
0.126401
0.122054
0.118337
0.114746
0.11106
0.107346
0.103679
0.100102
0.0965738
0.0931425
0.0897345
0.0863026
0.0829393
0.0795041
0.0761203
0.0728731
0.069618
0.0666116
0.0635936
0.0602832
0.0566134
0.0518442
0.0446085
0.0350089
0.267387
0.282031
0.275197
0.265697
0.25556
0.245742
0.236128
0.225961
0.214881
0.206278
0.201842
0.195511
0.190282
0.185763
0.180746
0.175085
0.1699
0.165083
0.160443
0.155237
0.149662
0.144374
0.140024
0.136034
0.132098
0.128174
0.124156
0.120032
0.115932
0.11188
0.107845
0.103876
0.10009
0.0964496
0.0930753
0.0898076
0.0866192
0.0835528
0.0803248
0.0773856
0.0740179
0.0711823
0.0678109
0.0647891
0.0616749
0.0584909
0.0547992
0.0498601
0.0432286
0.0338614
0.264061
0.279344
0.273872
0.265982
0.259657
0.250854
0.241838
0.233818
0.223895
0.213698
0.205105
0.199389
0.19241
0.186994
0.181562
0.17658
0.17121
0.165933
0.160508
0.156138
0.152537
0.147986
0.14305
0.138122
0.133424
0.128966
0.124728
0.120696
0.116706
0.112717
0.108936
0.105263
0.101664
0.0981811
0.0946348
0.0912275
0.087823
0.0845889
0.0813463
0.0781644
0.0749653
0.0716704
0.0684554
0.0652754
0.0619638
0.0587239
0.0553316
0.050296
0.0434889
0.034033
0.262944
0.278493
0.268068
0.260975
0.25488
0.249834
0.240477
0.230857
0.222915
0.213243
0.204088
0.196705
0.190324
0.185281
0.180606
0.174634
0.170023
0.165764
0.160918
0.156044
0.151038
0.146164
0.141571
0.137034
0.132598
0.128266
0.124139
0.120005
0.11619
0.112517
0.108856
0.105085
0.101346
0.0976399
0.0940512
0.0905474
0.0871929
0.0838858
0.0806786
0.0775278
0.0743484
0.0713229
0.0680713
0.0651073
0.0620969
0.0588522
0.0553291
0.0501709
0.0432902
0.0337933
0.054244
0.0454371
0.0512086
0.103337
0.0988173
0.107207
0.0905515
0.0532731
0.0459554
0.0441843
0.0816934
0.0783013
0.0705464
0.0654852
0.0553379
0.0458592
0.0450678
0.0759611
0.0775786
0.0617726
0.0649755
0.059351
0.0507608
0.0519183
0.0812874
0.0866437
0.0631745
0.0683481
0.055882
0.0540052
0.0542366
0.091073
0.0962329
0.0775033
0.0867256
0.0505279
0.0552544
0.0547045
0.10242
0.10554
0.0883933
0.0940317
0.0463521
0.0561793
0.0530607
0.11203
0.11431
0.0995662
0.101135
0.0487887
0.0569818
0.0559237
0.118572
0.121229
0.106167
0.106825
0.0508593
0.0585371
0.0581428
0.122346
0.123247
0.109351
0.108575
0.0524898
0.0606615
0.0606668
0.119977
0.120868
0.108759
0.108989
0.0530632
0.0605922
0.0593306
0.117404
0.116587
0.107184
0.105949
0.0555918
0.0603469
0.0601857
0.113987
0.112556
0.103568
0.101828
0.0577196
0.0609132
0.0610863
0.108747
0.108175
0.0991175
0.0976551
0.0581184
0.060753
0.0610974
0.104363
0.103835
0.0952309
0.0934354
0.0575597
0.0600506
0.0599765
0.100395
0.0999005
0.091295
0.0894571
0.0563578
0.0588625
0.0582613
0.096298
0.0961843
0.0869256
0.0861055
0.0546126
0.0568764
0.0555842
0.0941556
0.0932478
0.0851969
0.0828291
0.052911
0.05466
0.0544297
0.0877655
0.0881621
0.0788201
0.0791026
0.0516099
0.0534337
0.0523585
0.087012
0.086552
0.0787538
0.0775549
0.0500167
0.0514217
0.0507735
0.0841351
0.0839417
0.0760154
0.0750536
0.048369
0.0499196
0.0493493
0.0811298
0.0809329
0.0734256
0.0724863
0.0466183
0.0484805
0.047765
0.0780303
0.0778207
0.0708453
0.0699132
0.0448452
0.0467992
0.0459745
0.0752038
0.074959
0.068401
0.0674432
0.0431289
0.044959
0.0441496
0.0725741
0.0723558
0.0659577
0.065035
0.041515
0.0431605
0.0424261
0.0701888
0.0699528
0.0636539
0.0626861
0.0399516
0.041437
0.040811
0.0677286
0.0675268
0.0612491
0.0603006
0.0383549
0.0398231
0.0392079
0.0653224
0.0650685
0.058911
0.05792
0.036738
0.0381842
0.0376232
0.0626238
0.0624271
0.0563932
0.0554526
0.0350745
0.03659
0.0359165
0.0600862
0.0598572
0.0540208
0.0530894
0.0333547
0.0347882
0.0340629
0.057712
0.057425
0.0517315
0.0508031
0.0317153
0.0330448
0.0323176
0.0553155
0.0550041
0.0494783
0.0485209
0.0300092
0.0312654
0.03059
0.0527694
0.0525174
0.0470572
0.0462149
0.0283692
0.0296398
0.0289601
0.0503639
0.0501296
0.0448481
0.0440098
0.0266593
0.0279635
0.0273141
0.0478884
0.0476886
0.0425559
0.0418093
0.0249753
0.0263632
0.0256735
0.0455444
0.0453533
0.0404291
0.0396869
0.0232645
0.0246538
0.0239732
0.0432858
0.0430773
0.0383158
0.0375969
0.0216578
0.0230385
0.0223604
0.0411407
0.0409333
0.036346
0.0355902
0.0200205
0.0213502
0.0206949
0.0390676
0.0388223
0.0343057
0.0335464
0.0184674
0.0197574
0.0191348
0.0369633
0.0367714
0.0323587
0.0315514
0.0168606
0.0180961
0.0174937
0.0349383
0.0346875
0.030276
0.0294751
0.0152871
0.016455
0.0158406
0.0327446
0.032616
0.0282692
0.0274185
0.0136743
0.0147863
0.0141673
0.0306994
0.0303879
0.0261029
0.0252118
0.0121182
0.013143
0.0125699
0.0282302
0.0282226
0.0238988
0.0232264
0.0104511
0.0114564
0.0107246
0.0263762
0.026007
0.0219646
0.0210946
0.00885294
0.0095902
0.00895488
0.0239964
0.0239368
0.0198308
0.0190308
0.00722022
0.00795017
0.00723638
0.0220229
0.0216442
0.0177595
0.0169088
0.00547945
0.00613938
0.00541652
0.0191639
0.019169
0.0152635
0.0147167
0.00365449
0.00460678
0.00361045
0.0167359
0.0163549
0.0128632
0.0120943
0.00108374
0.00298398
0.001068
0.012964
0.011866
0.00909342
0.00770206
-0.00270708
-0.000217469
-0.00243078
0.00539415
0.00448207
0.00393062
0.00208422
)
;

boundaryField
{
    inlet
    {
        type            zeroGradient;
    }
    outlet
    {
        type            fixedValue;
        value           uniform 0;
    }
    side1
    {
        type            cyclicAMI;
        value           nonuniform List<scalar> 
400
(
-0.160514
-0.118949
-0.0417047
0.0560033
0.25792
-0.162939
-0.121977
-0.0418199
0.0520122
0.269467
-0.164965
-0.126724
-0.0413647
0.0580665
0.262995
-0.164507
-0.128159
-0.0441094
0.0623181
0.258378
-0.164851
-0.12802
-0.0490405
0.0615848
0.253036
-0.164623
-0.126959
-0.0493416
0.0587057
0.247384
-0.163025
-0.124588
-0.0487842
0.0569441
0.239805
-0.160598
-0.122218
-0.0458211
0.0571189
0.230012
-0.157993
-0.12006
-0.0439925
0.0591556
0.221794
-0.154713
-0.116913
-0.0417103
0.0604605
0.212798
-0.151296
-0.114326
-0.0386362
0.0617895
0.204537
-0.147643
-0.112089
-0.0352594
0.0630843
0.196439
-0.14405
-0.109756
-0.0319871
0.0648532
0.188973
-0.141055
-0.107658
-0.0295596
0.0645168
0.18371
-0.138446
-0.105596
-0.0271929
0.0636069
0.179211
-0.13587
-0.103218
-0.024637
0.0625588
0.174082
-0.133801
-0.101106
-0.0227823
0.0606654
0.169821
-0.131613
-0.098797
-0.0210151
0.0581359
0.165268
-0.129284
-0.0962995
-0.0195931
0.0568821
0.159637
-0.126945
-0.093862
-0.0187026
0.0548094
0.154689
-0.124522
-0.0914596
-0.0181171
0.0528894
0.149884
-0.122041
-0.0891241
-0.0177069
0.0511056
0.145141
-0.119501
-0.0868636
-0.0174145
0.0493508
0.140552
-0.116962
-0.0847602
-0.0171707
0.0475984
0.13605
-0.114331
-0.0827293
-0.0169844
0.0458713
0.131631
-0.111835
-0.0809077
-0.0168942
0.0441141
0.127376
-0.109282
-0.079133
-0.0168549
0.0423648
0.123259
-0.106981
-0.0775766
-0.0169369
0.0405165
0.119269
-0.104678
-0.0760311
-0.0170118
0.0387641
0.115308
-0.102661
-0.0747178
-0.0171828
0.0369514
0.11136
-0.100654
-0.0733975
-0.0173078
0.0351536
0.107534
-0.0989427
-0.0723316
-0.0176055
0.0333235
0.103799
-0.0973148
-0.0712766
-0.0179093
0.0315823
0.100167
-0.0959238
-0.0704404
-0.0183592
0.0298028
0.0966551
-0.094578
-0.0695814
-0.0187749
0.0281052
0.0931959
-0.0934112
-0.0690824
-0.0193444
0.0263596
0.0898059
-0.0924696
-0.0683464
-0.0197821
0.0246893
0.0864411
-0.0913461
-0.0680037
-0.0204475
0.0230205
0.0831926
-0.0899209
-0.067288
-0.0209781
0.021313
0.0799268
-0.0888294
-0.0669195
-0.0217416
0.0196746
0.0768316
-0.0871668
-0.0660777
-0.0222967
0.0178732
0.0736049
-0.0861227
-0.0656039
-0.0230417
0.0162842
0.0706467
-0.0843544
-0.064654
-0.0235673
0.0144378
0.0674268
-0.0831815
-0.0640383
-0.0242209
0.01291
0.06439
-0.0811394
-0.0629782
-0.0247327
0.0110069
0.061226
-0.0794486
-0.0619806
-0.0252084
0.00941688
0.0580343
-0.0762827
-0.0601808
-0.0254923
0.00742603
0.0545691
-0.0721019
-0.0569491
-0.02517
0.00562565
0.0497049
-0.0619608
-0.0503544
-0.0229029
0.00375031
0.0427511
-0.0549177
-0.0432514
-0.0222833
-0.00159306
0.0328826
0.0605425
0.0902307
0.0931849
0.0525424
0.0688377
0.0710549
0.0555813
0.0701401
0.0690828
0.0596769
0.0775451
0.074044
0.0590729
0.0857282
0.0823554
0.0575522
0.0941273
0.0920877
0.0568553
0.102198
0.100708
0.0592967
0.10757
0.105833
0.0608665
0.109061
0.108472
0.0623153
0.107873
0.107291
0.0628901
0.105275
0.105809
0.064775
0.102816
0.103751
0.0660626
0.0997755
0.100149
0.0655692
0.0961056
0.0964508
0.064331
0.0926015
0.0929244
0.0628139
0.0894132
0.0894875
0.060727
0.0865176
0.087111
0.0585085
0.0820417
0.0817825
0.0567984
0.0800938
0.0803945
0.0548946
0.0774978
0.0776242
0.0529877
0.0746785
0.0748072
0.0511253
0.0719164
0.0720534
0.0493132
0.0693893
0.0695493
0.0475582
0.0670512
0.0671939
0.0458499
0.0648187
0.064973
0.0441365
0.0625284
0.0626604
0.0423623
0.0601754
0.0603414
0.0405476
0.0576737
0.0578022
0.0387181
0.0552371
0.0553868
0.0368617
0.0529031
0.0530907
0.0350671
0.050584
0.0507876
0.0332306
0.0482258
0.0483905
0.0314775
0.045974
0.0461272
0.0296832
0.0436944
0.0438251
0.0279538
0.0415354
0.0416603
0.0261997
0.039408
0.0395443
0.0245434
0.0373961
0.0375317
0.0228537
0.0353921
0.0355524
0.021206
0.0334108
0.0335362
0.0195239
0.0314103
0.0315742
0.0178312
0.0293815
0.0294656
0.0161174
0.0272566
0.0274603
0.0144211
0.0251499
0.0251549
0.0126735
0.0230367
0.023278
0.0109532
0.0209971
0.0210361
0.00917234
0.0187719
0.0190194
0.00732021
0.01643
0.0164266
0.0053386
0.013788
0.0140371
0.00278891
0.00998638
0.0107041
-0.00181073
0.00296713
0.0035633
)
;
    }
    side2
    {
        type            cyclicAMI;
        value           nonuniform List<scalar> 
250
(
-0.160514
-0.118949
-0.0417047
0.0753405
0.25792
-0.162939
-0.121977
-0.0418199
0.0612969
0.269467
-0.164965
-0.126724
-0.0413647
0.0633516
0.262995
-0.164507
-0.128159
-0.0441094
0.068551
0.258378
-0.164851
-0.12802
-0.0490405
0.0724336
0.253036
-0.164623
-0.126959
-0.0493416
0.0759845
0.247384
-0.163025
-0.124588
-0.0487842
0.0796429
0.239805
-0.160598
-0.122218
-0.0458211
0.0829624
0.230012
-0.157993
-0.12006
-0.0439925
0.0848993
0.221794
-0.154713
-0.116913
-0.0417103
0.0849687
0.212798
-0.151296
-0.114326
-0.0386362
0.0843932
0.204537
-0.147643
-0.112089
-0.0352594
0.0840188
0.196439
-0.14405
-0.109756
-0.0319871
0.0830715
0.188973
-0.141055
-0.107658
-0.0295596
0.0809877
0.18371
-0.138446
-0.105596
-0.0271929
0.0786675
0.179211
-0.13587
-0.103218
-0.024637
0.0763486
0.174082
-0.133801
-0.101106
-0.0227823
0.0740288
0.169821
-0.131613
-0.098797
-0.0210151
0.0703642
0.165268
-0.129284
-0.0962995
-0.0195931
0.0687873
0.159637
-0.126945
-0.093862
-0.0187026
0.0664443
0.154689
-0.124522
-0.0914596
-0.0181171
0.0640691
0.149884
-0.122041
-0.0891241
-0.0177069
0.0617687
0.145141
-0.119501
-0.0868636
-0.0174145
0.0596115
0.140552
-0.116962
-0.0847602
-0.0171707
0.0575551
0.13605
-0.114331
-0.0827293
-0.0169844
0.0555776
0.131631
-0.111835
-0.0809077
-0.0168942
0.0535533
0.127376
-0.109282
-0.079133
-0.0168549
0.0514984
0.123259
-0.106981
-0.0775766
-0.0169369
0.0493152
0.119269
-0.104678
-0.0760311
-0.0170118
0.0472001
0.115308
-0.102661
-0.0747178
-0.0171828
0.0451203
0.11136
-0.100654
-0.0733975
-0.0173078
0.0430612
0.107534
-0.0989427
-0.0723316
-0.0176055
0.04095
0.103799
-0.0973148
-0.0712766
-0.0179093
0.0389423
0.100167
-0.0959238
-0.0704404
-0.0183592
0.0368982
0.0966551
-0.094578
-0.0695814
-0.0187749
0.0349558
0.0931959
-0.0934112
-0.0690824
-0.0193444
0.0330161
0.0898059
-0.0924696
-0.0683464
-0.0197821
0.0311747
0.0864411
-0.0913461
-0.0680037
-0.0204475
0.0293359
0.0831926
-0.0899209
-0.067288
-0.0209781
0.0274944
0.0799268
-0.0888294
-0.0669195
-0.0217416
0.0256703
0.0768316
-0.0871668
-0.0660777
-0.0222967
0.0237591
0.0736049
-0.0861227
-0.0656039
-0.0230417
0.0218965
0.0706467
-0.0843544
-0.064654
-0.0235673
0.0199032
0.0674268
-0.0831815
-0.0640383
-0.0242209
0.0180831
0.06439
-0.0811394
-0.0629782
-0.0247327
0.0161034
0.061226
-0.0794486
-0.0619806
-0.0252084
0.0141957
0.0580343
-0.0762827
-0.0601808
-0.0254923
0.0119955
0.0545691
-0.0721019
-0.0569491
-0.02517
0.00978563
0.0497049
-0.0619608
-0.0503544
-0.0229029
0.00688152
0.0427511
-0.0549177
-0.0432514
-0.0222833
0.000833676
0.0328826
)
;
    }
    walls
    {
        type            zeroGradient;
    }
}


// ************************************************************************* //
