/*--------------------------------*- C++ -*----------------------------------*\
| =========                 |                                                 |
| \\      /  F ield         | OpenFOAM: The Open Source CFD Toolbox           |
|  \\    /   O peration     | Version:  4.1                                   |
|   \\  /    A nd           | Web:      www.OpenFOAM.org                      |
|    \\/     M anipulation  |                                                 |
\*---------------------------------------------------------------------------*/
FoamFile
{
    version     2.0;
    format      ascii;
    class       surfaceScalarField;
    location    "200";
    object      phi;
}
// * * * * * * * * * * * * * * * * * * * * * * * * * * * * * * * * * * * * * //

dimensions      [0 3 -1 0 0 0 0];

internalField   nonuniform List<scalar> 
4422
(
0.00154734
0.00256809
-2.38389e-06
0.0015507
0.00251472
-1.48583e-05
0.00155156
0.00244012
-2.01186e-05
0.00155219
0.00237314
-2.09224e-05
0.0015524
0.00231344
-1.96404e-05
0.00155102
0.00228696
-5.68957e-06
0.00154799
0.00231008
8.13072e-07
0.00154425
0.00235068
2.43462e-06
0.00153959
0.00238182
1.20767e-05
0.00153489
0.00239635
1.2341e-05
0.00152942
0.00239225
9.77179e-06
0.00152392
0.00236243
1.73834e-06
0.00151916
0.00231032
-6.24225e-06
0.00151503
0.00225456
-1.46268e-06
0.00151121
0.00221419
-1.03418e-06
0.00150796
0.00219069
-1.95499e-06
0.00150477
0.00218447
-1.87578e-06
0.00150141
0.0021907
-2.55891e-07
0.00149789
0.00220377
-5.51433e-07
0.00149419
0.00221616
-1.09003e-06
0.00149021
0.00222272
-1.05555e-06
0.001486
0.00222112
-2.13131e-07
0.00148157
0.00221261
7.40428e-07
0.0014769
0.00219772
1.58184e-06
0.00147206
0.00217729
1.59805e-06
0.00146724
0.00215352
1.26226e-06
0.00146242
0.00212528
8.16457e-07
0.00145784
0.00209813
3.95317e-07
0.00145356
0.0020689
1.26709e-07
0.00144967
0.00204209
-1.28734e-07
0.00144615
0.00201715
-1.75079e-07
0.00144307
0.00199157
-5.24352e-07
0.00144035
0.00197157
-6.74189e-07
0.00143796
0.00194858
-9.72825e-07
0.00143618
0.00192898
-9.63594e-07
0.00143542
0.0019056
-1.85801e-06
0.00143517
0.00188412
-1.76648e-06
0.00143633
0.00184348
-3.3228e-06
0.00143866
0.00180295
-4.45499e-06
0.00144132
0.0017641
-5.15027e-06
0.00144489
0.00172532
-5.77761e-06
0.00144904
0.00169356
-6.65765e-06
0.00145421
0.00165535
-7.40168e-06
0.00145966
0.00162432
-7.69375e-06
0.00146567
0.00158062
-7.90526e-06
0.00147034
0.00155133
-6.48376e-06
0.00147219
0.00149736
-3.53165e-06
0.00146871
0.00147007
2.0145e-06
0.0014294
0.00138853
3.81553e-05
0.0013048
5.54265e-05
0.00154731
0.00256298
2.88937e-06
0.00155072
0.00251146
-1.55222e-07
0.00155159
0.0024431
-3.85301e-06
0.00155215
0.00236912
3.45971e-06
0.00155234
0.00230977
3.47405e-06
0.00155094
0.002286
2.35478e-06
0.00154797
0.00230899
4.03988e-06
0.00154432
0.00235645
-2.11901e-06
0.00153968
0.00239096
-4.49455e-06
0.00153492
0.00239202
9.07972e-06
0.00152939
0.00238251
1.52665e-05
0.00152389
0.00234984
1.81679e-05
0.00151912
0.00230235
1.26742e-05
0.00151498
0.00225276
5.95374e-06
0.00151118
0.002214
4.04837e-06
0.00150797
0.00219297
9.52444e-07
0.0015048
0.00218817
-5.21012e-07
0.00150144
0.00219319
8.91087e-07
0.00149791
0.00220422
3.12022e-06
0.0014942
0.00221531
4.64488e-06
0.00149021
0.00222204
4.73482e-06
0.00148602
0.00222096
4.52089e-06
0.00148159
0.00221269
4.53058e-06
0.00147692
0.00219751
5.20438e-06
0.0014721
0.0021767
5.71087e-06
0.00146728
0.00215279
5.96327e-06
0.00146246
0.00212487
5.61858e-06
0.00145789
0.00209822
4.9193e-06
0.00145365
0.00206962
3.94585e-06
0.00144971
0.00204319
3.24075e-06
0.00144615
0.00201833
2.7277e-06
0.00144312
0.00199262
2.36676e-06
0.00144041
0.00197255
2.04049e-06
0.00143802
0.00194936
1.86125e-06
0.00143622
0.0019294
1.6684e-06
0.00143543
0.00190583
7.97742e-07
0.00143518
0.00188451
2.66034e-07
0.00143634
0.00184348
-6.81699e-07
0.00143866
0.0018025
-1.41627e-06
0.00144133
0.00176364
-1.83716e-06
0.00144491
0.00172506
-2.62941e-06
0.00144907
0.00169345
-3.58115e-06
0.00145422
0.00165556
-4.83665e-06
0.00145967
0.00162474
-5.36977e-06
0.00146568
0.00158109
-5.86145e-06
0.00147033
0.00155175
-4.60655e-06
0.00147216
0.00149785
-1.8177e-06
0.00146868
0.00147091
3.10623e-06
0.00142937
0.00138908
3.92621e-05
0.00130556
5.64668e-05
0.00154728
0.00256188
-1.1e-06
0.0015507
0.00250463
3.41593e-06
0.00155162
0.00244301
-8.2788e-07
0.00155217
0.00235852
1.00379e-05
0.00155238
0.0023022
7.36285e-06
0.00155094
0.00228005
7.38903e-06
0.00154786
0.00229254
1.9509e-05
0.0015442
0.00234361
1.64823e-05
0.00153963
0.00239505
4.91065e-07
0.00153493
0.00240944
-1.27767e-05
0.00152942
0.00239597
-8.01893e-06
0.00152392
0.00235682
-1.38523e-06
0.00151917
0.00230079
6.29645e-06
0.00151503
0.00225063
6.28669e-06
0.00151115
0.00220647
1.14345e-05
0.00150792
0.00218605
1.01867e-05
0.00150476
0.00218316
8.20547e-06
0.00150142
0.00219153
4.98896e-06
0.0014979
0.00220355
4.18755e-06
0.0014942
0.00221462
4.46739e-06
0.0014902
0.00222076
5.24275e-06
0.00148601
0.00221957
5.64934e-06
0.00148158
0.00221134
5.83162e-06
0.00147691
0.00219606
6.28747e-06
0.00147208
0.00217489
6.69554e-06
0.00146726
0.00215041
7.38157e-06
0.00146244
0.002122
7.7774e-06
0.00145786
0.00209503
7.91463e-06
0.00145361
0.00206633
7.67671e-06
0.00144967
0.00204006
7.16458e-06
0.00144612
0.00201566
6.324e-06
0.00144308
0.00199044
5.382e-06
0.00144038
0.00197078
4.52723e-06
0.001438
0.0019479
3.90691e-06
0.0014362
0.00192826
3.09185e-06
0.00143541
0.00190461
2.02913e-06
0.00143516
0.00188342
1.51921e-06
0.00143631
0.00184191
5.29732e-07
0.00143861
0.00180072
-3.96488e-07
0.00144129
0.00176127
-1.48864e-07
0.00144486
0.00172269
-1.00513e-06
0.001449
0.00169093
-1.41274e-06
0.00145415
0.00165349
-2.91168e-06
0.00145959
0.0016227
-3.23369e-06
0.0014656
0.00157947
-4.16993e-06
0.00147024
0.00155032
-3.1168e-06
0.00147205
0.00149671
-5.58992e-07
0.00146857
0.00147015
4.24528e-06
0.00142924
0.00138842
4.01844e-05
0.00130501
5.75314e-05
0.00154734
0.00256426
-4.62724e-06
0.00155063
0.00249634
5.01074e-06
0.00155149
0.0024387
3.44618e-06
0.00155213
0.00236059
-2.71017e-06
0.00155237
0.00230419
-2.24103e-06
0.00155101
0.00228979
-8.3714e-06
0.00154797
0.00230238
-6.80678e-06
0.00154428
0.00234192
5.37062e-06
0.00153965
0.00238397
1.5718e-05
0.00153493
0.00240381
1.03355e-05
0.0015294
0.00239568
5.83474e-06
0.00152385
0.00235748
4.9318e-06
0.00151913
0.00230589
-4.4549e-07
0.00151504
0.00225563
-8.96219e-07
0.00151122
0.00221292
-2.58131e-06
0.00150795
0.00218708
2.25277e-06
0.00150478
0.00218141
4.92863e-06
0.00150142
0.00218953
5.36311e-06
0.0014979
0.00220243
4.68757e-06
0.0014942
0.00221484
3.57027e-06
0.00149021
0.00222188
2.95463e-06
0.00148603
0.00222097
2.98412e-06
0.0014816
0.00221288
3.10125e-06
0.00147693
0.00219772
3.38424e-06
0.0014721
0.00217667
3.39431e-06
0.00146728
0.00215201
3.69275e-06
0.00146246
0.00212343
3.83341e-06
0.00145788
0.00209614
3.96616e-06
0.00145362
0.00206709
3.97018e-06
0.00144969
0.00204057
3.90206e-06
0.00144616
0.00201604
3.56215e-06
0.00144311
0.00199067
3.24945e-06
0.0014404
0.00197129
2.58624e-06
0.00143802
0.00194839
2.19009e-06
0.00143623
0.00192911
1.23913e-06
0.00143545
0.00190562
7.94443e-08
0.00143519
0.00188432
-1.94171e-07
0.00143634
0.00184282
-1.49644e-06
0.00143865
0.00180178
-2.84301e-06
0.00144134
0.00176223
-3.21854e-06
0.0014449
0.00172378
-4.01313e-06
0.00144901
0.00169168
-4.34879e-06
0.00145417
0.00165419
-5.22799e-06
0.00145962
0.00162318
-5.36264e-06
0.00146562
0.00158002
-5.83344e-06
0.00147027
0.00155095
-4.72453e-06
0.00147208
0.00149714
-1.69169e-06
0.00146861
0.00147058
3.63558e-06
0.00142928
0.00138877
3.95016e-05
0.00130503
5.7332e-05
0.00154738
-5.98663e-06
0.00155078
-1.02749e-05
0.00155148
1.71396e-05
0.0015521
7.11141e-06
0.00155228
1.00037e-05
0.00155091
1.1264e-05
0.00154791
-2.51475e-06
0.00154423
-3.81071e-06
0.00153967
-6.97589e-07
0.00153497
4.40789e-06
0.00152947
4.49705e-06
0.00152391
4.59361e-06
0.00151911
1.13223e-05
0.00151498
1.08466e-05
0.00151117
7.49196e-06
0.00150793
4.9338e-06
0.00150476
5.25171e-06
0.00150142
5.77691e-06
0.0014979
6.27767e-06
0.00149419
7.38945e-06
0.0014902
8.17468e-06
0.00148601
8.73915e-06
0.00148158
8.63369e-06
0.0014769
8.3492e-06
0.00147207
7.80274e-06
0.00146724
7.5582e-06
0.00146242
7.46833e-06
0.00145784
7.39505e-06
0.00145356
7.20603e-06
0.00144963
6.93263e-06
0.00144612
6.57847e-06
0.00144308
6.37898e-06
0.00144035
6.16956e-06
0.00143795
5.90414e-06
0.00143617
5.19993e-06
0.00143541
3.63597e-06
0.00143516
3.12106e-06
0.00143631
9.26851e-07
0.00143863
-7.6619e-07
0.0014413
-1.46953e-06
0.00144486
-2.1967e-06
0.001449
-2.79469e-06
0.00145416
-3.34362e-06
0.00145961
-3.64674e-06
0.00146562
-3.79717e-06
0.00147028
-2.67506e-06
0.00147212
2.18919e-07
0.00146864
5.8648e-06
0.00142933
4.14413e-05
5.8845e-05
0.00464303
0.0060939
-2.0695e-05
0.00466645
0.00618244
-9.11681e-05
0.00467731
0.00629374
-0.000204932
0.00467775
0.00635929
-0.000190425
0.00467377
0.00639915
-0.000163498
0.00466795
0.00638565
-7.39247e-05
0.0046588
0.00631797
-2.63677e-05
0.00464234
0.00620503
4.3639e-06
0.00462496
0.00607405
3.34359e-05
0.00461538
0.0059836
2.92396e-05
0.0046071
0.00592387
3.95987e-05
0.0045967
0.00593846
2.41445e-05
0.00458618
0.00600466
-2.1942e-05
0.00457662
0.00607578
-4.83052e-05
0.00456548
0.00610952
-6.34513e-05
0.00455376
0.00611715
-5.32383e-05
0.00454191
0.00610066
-3.35702e-05
0.00453027
0.00606697
-8.24001e-06
0.00451922
0.00602989
-6.99677e-06
0.0045083
0.00598018
-1.41631e-05
0.00449691
0.00591615
-1.71445e-05
0.00448601
0.00584653
-1.53473e-05
0.00447581
0.00577553
-1.2016e-05
0.00446637
0.00570722
-1.05756e-05
0.00445733
0.00563852
-1.3479e-05
0.00444889
0.00557176
-1.85601e-05
0.0044407
0.00549982
-2.38971e-05
0.00443308
0.00542894
-2.6545e-05
0.00442589
0.00535413
-2.56271e-05
0.00441981
0.00528344
-2.51025e-05
0.00441472
0.00521522
-2.32955e-05
0.0044105
0.0051496
-2.29678e-05
0.00440744
0.00508812
-2.21538e-05
0.00440504
0.00502809
-2.16269e-05
0.00440309
0.00497037
-1.96628e-05
0.00440016
0.00491759
-1.80028e-05
0.00439863
0.00486741
-1.85778e-05
0.00439744
0.00481525
-2.18566e-05
0.00439837
0.00475294
-2.74362e-05
0.00439955
0.00469262
-3.21802e-05
0.0044028
0.00461756
-3.8166e-05
0.00440638
0.00455196
-4.12579e-05
0.00441245
0.00446803
-4.38238e-05
0.00441958
0.00439853
-4.48858e-05
0.00442811
0.00430668
-4.53151e-05
0.00443719
0.0042333
-4.32559e-05
0.00444042
0.00412437
-3.40482e-05
0.00442947
0.00404423
-1.01772e-05
0.00435176
0.00383795
9.3598e-05
0.00359535
0.000256653
0.00464867
0.00610305
-1.96565e-05
0.00466416
0.00614377
2.30175e-05
0.00467311
0.00625918
2.17524e-05
0.00467452
0.0063564
4.93701e-06
0.00466958
0.00643346
-2.59018e-05
0.00466064
0.0064298
-3.28629e-05
0.00465709
0.00636988
-4.43306e-05
0.00464983
0.00626477
-5.46207e-05
0.00463248
0.00614781
-6.08872e-05
0.00461913
0.00604068
-3.46962e-05
0.00460703
0.00595525
-4.01031e-06
0.00459678
0.00591453
5.23771e-05
0.00458446
0.00595331
7.63228e-05
0.00457272
0.00604371
4.9778e-05
0.00456343
0.00611391
8.9727e-06
0.00455427
0.00615226
-2.49778e-05
0.00454355
0.00614857
-3.76391e-05
0.00453171
0.00610536
-2.57233e-05
0.00451997
0.00605254
-7.79906e-06
0.00450896
0.00599434
1.55795e-06
0.00449802
0.00593145
2.57808e-07
0.00448743
0.00586239
-8.1895e-07
0.00447719
0.0057888
1.46367e-06
0.00446769
0.00571543
6.48651e-06
0.00445873
0.00564236
1.06704e-05
0.00445046
0.00557484
1.10898e-05
0.00444259
0.00550597
7.11532e-06
0.00443544
0.00544094
-7.13329e-08
0.00442872
0.00537157
-6.98469e-06
0.00442271
0.00530312
-1.06065e-05
0.00441759
0.00523518
-1.22647e-05
0.00441347
0.00516849
-1.25163e-05
0.00441044
0.0051052
-1.21889e-05
0.004408
0.00504311
-1.08271e-05
0.00440587
0.00498305
-8.95511e-06
0.00440267
0.00492749
-6.0121e-06
0.00440081
0.00487313
-3.73624e-06
0.00439941
0.00481895
-3.2335e-06
0.00440009
0.00475469
-4.03818e-06
0.0044012
0.00469538
-5.79455e-06
0.00440436
0.00462224
-1.07398e-05
0.00440799
0.00456016
-1.55443e-05
0.00441404
0.00447919
-2.23008e-05
0.00442101
0.00441093
-2.4941e-05
0.00442922
0.00431919
-2.68634e-05
0.00443805
0.00424416
-2.46559e-05
0.00444108
0.00413508
-1.59386e-05
0.0044303
0.00405426
3.31334e-06
0.00435216
0.0038446
0.000110512
0.00360272
0.000272859
0.0046494
0.00610977
-2.1958e-05
0.00466407
0.00613979
-7.2718e-06
0.0046739
0.00621572
3.28107e-05
0.00468144
0.00634078
1.81079e-05
0.00467601
0.00641412
3.21311e-05
0.00466408
0.00641017
3.8951e-05
0.00464845
0.00630223
0.000102776
0.00464271
0.00618999
9.69986e-05
0.00463159
0.00609248
6.69342e-05
0.0046182
0.00604393
-2.68209e-06
0.00460646
0.00599307
-3.40914e-05
0.00459639
0.00596078
-3.75751e-05
0.00458836
0.00596982
-2.18336e-06
0.00457654
0.00600924
5.25856e-05
0.00456322
0.00606373
7.49552e-05
0.00455253
0.0061109
6.22476e-05
0.00454205
0.00612208
4.52162e-05
0.00453082
0.00609641
2.51316e-05
0.00451922
0.00604231
2.60221e-05
0.00450812
0.00597967
3.02656e-05
0.00449712
0.00591538
3.22402e-05
0.00448657
0.0058511
2.74648e-05
0.00447616
0.00578178
2.32611e-05
0.0044663
0.00570886
2.27539e-05
0.00445702
0.00563252
2.57325e-05
0.00444855
0.00555982
3.08876e-05
0.00444049
0.0054864
3.52963e-05
0.00443324
0.00541972
3.63521e-05
0.00442647
0.00535148
3.44424e-05
0.00442032
0.00528552
3.08397e-05
0.00441504
0.00522054
2.61941e-05
0.00441092
0.0051576
2.03506e-05
0.00440803
0.00509716
1.53953e-05
0.00440584
0.00503782
1.13216e-05
0.00440382
0.00497972
8.44503e-06
0.0044005
0.00492436
8.41332e-06
0.00439838
0.00486929
7.45035e-06
0.00439678
0.00481191
9.04563e-06
0.00439742
0.00474603
7.60734e-06
0.00439845
0.00468215
1.2033e-05
0.00440191
0.00460874
9.00153e-06
0.00440584
0.0045458
9.0094e-06
0.00441218
0.00446781
2.06493e-06
0.0044196
0.0044009
-6.08443e-07
0.00442805
0.00431233
-5.82305e-06
0.00443711
0.00423866
-6.76127e-06
0.00444027
0.00413156
-3.36465e-07
0.00442982
0.00405411
1.47041e-05
0.0043519
0.00384396
0.000118707
0.00360109
0.000284029
0.0046506
0.00610618
-1.63769e-05
0.0046632
0.00614445
-1.2249e-05
0.00466521
0.00621004
7.11143e-06
0.00467401
0.00634556
-1.62907e-05
0.00467499
0.00644485
-3.39606e-05
0.00466851
0.00651271
-0.000104434
0.00465647
0.00643782
-0.000130368
0.0046418
0.00628801
-7.79981e-05
0.00463319
0.00613551
-1.86855e-05
0.00462091
0.0060511
1.54366e-05
0.00460613
0.00601428
-6.48635e-07
0.00459319
0.00600243
-2.3739e-05
0.00458309
0.00603382
-5.43597e-05
0.00457593
0.00607245
-5.69199e-05
0.00456525
0.00610348
-3.16221e-05
0.00455425
0.00613973
-1.55546e-05
0.00454334
0.00615169
-1.37019e-05
0.00453165
0.0061353
-2.18992e-05
0.00451963
0.00608755
-2.85459e-05
0.0045083
0.00602448
-2.98597e-05
0.00449758
0.0059562
-2.72798e-05
0.0044876
0.00588922
-2.52461e-05
0.00447774
0.00582018
-2.55028e-05
0.00446811
0.00574883
-2.69884e-05
0.0044588
0.00567262
-2.75786e-05
0.00445024
0.00559776
-2.57982e-05
0.00444223
0.00552043
-2.2442e-05
0.00443508
0.00544956
-1.88859e-05
0.00442859
0.00537857
-1.68899e-05
0.00442275
0.0053111
-1.60532e-05
0.00441748
0.00524571
-1.65194e-05
0.00441321
0.00518227
-1.72764e-05
0.00441024
0.00512288
-2.03791e-05
0.00440816
0.00506409
-2.21239e-05
0.00440649
0.0050082
-2.56638e-05
0.00440356
0.00495463
-2.73969e-05
0.00440167
0.00490195
-3.1156e-05
0.00440004
0.00484455
-3.27809e-05
0.00440054
0.0047773
-3.48772e-05
0.0044013
0.00471071
-3.26515e-05
0.00440434
0.00463231
-3.09232e-05
0.00440791
0.00456583
-2.81375e-05
0.00441407
0.0044846
-2.84848e-05
0.00442123
0.00441547
-2.73538e-05
0.00442954
0.00432481
-2.69394e-05
0.00443846
0.00425109
-2.65219e-05
0.00444149
0.0041411
-1.46964e-05
0.00443089
0.00406427
3.4209e-06
0.0043529
0.00385353
0.000107648
0.00360793
0.00027493
0.00465023
1.80452e-06
0.00467376
-1.89068e-05
0.00467409
0.000107049
0.00467218
0.000164332
0.00467135
0.000204375
0.00466457
0.000219157
0.00465268
0.00016553
0.00463953
0.000106811
0.00462811
6.8217e-05
0.00462254
7.00382e-05
0.00461139
8.44904e-05
0.0045978
7.0192e-05
0.00458523
7.92433e-05
0.00457382
7.53471e-05
0.00456303
8.58776e-05
0.00455248
0.000101097
0.0045422
0.000110271
0.00453153
0.000104253
0.00452011
9.28507e-05
0.00450836
8.75477e-05
0.00449682
8.69961e-05
0.00448639
8.77656e-05
0.00447659
8.60113e-05
0.00446719
8.10017e-05
0.00445796
7.4952e-05
0.00444926
7.04839e-05
0.00444089
6.89377e-05
0.00443336
6.99081e-05
0.00442661
7.09786e-05
0.00442082
7.11298e-05
0.00441589
6.99662e-05
0.00441177
6.96707e-05
0.00440865
6.83069e-05
0.00440625
6.71441e-05
0.00440439
6.54896e-05
0.00440148
6.23948e-05
0.00439975
5.75648e-05
0.00439815
5.10941e-05
0.00439856
4.50053e-05
0.00439919
4.17577e-05
0.00440197
3.85859e-05
0.00440536
3.86136e-05
0.00441143
3.71328e-05
0.00441865
3.59774e-05
0.00442721
3.42798e-05
0.00443634
3.3178e-05
0.00443942
4.05539e-05
0.00442863
5.9026e-05
0.00435099
0.000156674
0.000321841
0.00772576
0.00991168
0.000130544
0.000114708
-0.000165489
-8.37507e-05
0.007739
0.0101528
2.93743e-05
-3.65383e-05
-6.38984e-05
-0.000136915
0.00777012
0.0102678
-0.000107683
-0.000126587
-0.000163504
-0.000223768
0.00778222
0.0101867
-0.000116166
-0.000126262
-0.000221351
-0.000233523
0.00778024
0.0100561
-9.53848e-05
-8.09925e-05
-0.000238555
-0.000220582
0.00778726
0.00992349
-2.2467e-05
1.02058e-06
-0.00021703
-0.000174262
0.00777235
0.00991646
5.64564e-05
8.70784e-05
-0.00015806
-0.00012922
0.00775696
0.0100506
0.000116729
0.000129499
-0.00012696
-0.000120556
0.00772841
0.0102021
0.000138747
0.000146277
-0.000130597
-0.000135902
0.00770462
0.0102005
0.000161347
0.000162589
-0.000129779
-0.000121756
0.00767513
0.0101847
0.000176569
0.000177818
-0.000102615
-9.27853e-05
0.00765838
0.0101896
0.000171711
0.000155545
-8.65813e-05
-9.06384e-05
0.00764889
0.0101522
0.000130232
0.000115969
-0.000102313
-0.000113661
0.00762676
0.0100666
9.13091e-05
7.45333e-05
-0.000128437
-0.000150506
0.00760297
0.00989539
6.15678e-05
4.86532e-05
-0.000155272
-0.000170142
0.00759324
0.00967143
5.44707e-05
4.91533e-05
-0.000160429
-0.000160795
0.00759215
0.00947243
5.85275e-05
5.43474e-05
-0.000149631
-0.000151114
0.00759394
0.00928782
7.13279e-05
6.82575e-05
-0.000130409
-0.000118525
0.00759847
0.0091522
7.03374e-05
6.5495e-05
-0.000115073
-0.000112245
0.00760402
0.00903529
6.70092e-05
6.23191e-05
-0.000113401
-0.000113323
0.00760826
0.00891796
6.45978e-05
5.93244e-05
-0.000113455
-0.000114482
0.00761263
0.00879481
6.33251e-05
5.87199e-05
-0.000112673
-0.000112089
0.00761839
0.00866777
6.363e-05
5.9338e-05
-0.000109233
-0.000107338
0.00762656
0.00854583
6.38719e-05
5.95444e-05
-0.000104994
-0.000102889
0.00763574
0.00843047
6.22167e-05
5.73212e-05
-0.000102603
-0.000101969
0.00764498
0.00832085
5.84406e-05
5.27452e-05
-0.000103088
-0.000104255
0.00765307
0.00820694
5.35049e-05
4.80895e-05
-0.000105768
-0.000107593
0.00765998
0.00809085
4.98709e-05
4.42846e-05
-0.000107578
-0.000109538
0.00766589
0.00796714
4.75046e-05
4.31677e-05
-0.000108044
-0.000108357
0.00767205
0.00784684
4.62885e-05
4.1819e-05
-0.000106134
-0.000106072
0.00767946
0.00772795
4.58329e-05
4.13921e-05
-0.000103219
-0.00010285
0.00768754
0.00761513
4.5338e-05
4.11505e-05
-0.000100303
-9.96202e-05
0.00769534
0.00750648
4.57768e-05
4.22465e-05
-9.71834e-05
-9.60842e-05
0.00770264
0.00740528
4.64406e-05
4.27423e-05
-9.40186e-05
-9.26138e-05
0.00770915
0.00730706
4.76561e-05
4.48345e-05
-9.06391e-05
-8.84467e-05
0.00771568
0.00721939
4.89435e-05
4.52138e-05
-8.67069e-05
-8.48199e-05
0.0077215
0.00713403
4.90133e-05
4.5304e-05
-8.39733e-05
-8.23908e-05
0.00772533
0.0070617
4.75867e-05
4.27842e-05
-8.23431e-05
-8.19232e-05
0.0077261
0.00697962
4.48235e-05
4.00738e-05
-8.29712e-05
-8.34303e-05
0.00772338
0.00690728
4.14668e-05
3.63193e-05
-8.42768e-05
-8.56186e-05
0.00771767
0.00681034
3.83521e-05
3.32415e-05
-8.67162e-05
-8.83642e-05
0.00771169
0.00672403
3.46925e-05
2.96837e-05
-8.86734e-05
-9.04346e-05
0.0077049
0.00660814
3.37739e-05
2.97449e-05
-8.92057e-05
-8.88661e-05
0.00770051
0.00651168
3.16549e-05
2.6797e-05
-8.75791e-05
-8.80004e-05
0.00769685
0.00638939
3.07745e-05
2.70247e-05
-8.59981e-05
-8.61384e-05
0.00769608
0.00628571
3.00165e-05
2.55719e-05
-8.32211e-05
-8.41913e-05
0.00769027
0.00615639
3.21618e-05
3.02311e-05
-7.81349e-05
-7.80282e-05
0.00767933
0.00603238
4.01487e-05
3.90316e-05
-6.82075e-05
-6.46887e-05
0.00761716
0.00584046
7.03991e-05
8.42854e-05
-3.83724e-05
-1.50556e-05
0.00551287
0.00012812
0.000181798
1.73534e-05
7.8744e-05
0.00775062
0.00989148
-2.46833e-05
0.00774131
0.00989785
0.000287303
0.00777592
0.00986453
0.000390447
0.00778256
0.00985517
0.000329841
0.00777839
0.00982163
0.000212777
0.00776163
0.00981171
9.56722e-05
0.00775829
0.00981559
5.98654e-05
0.00775204
0.00993524
6.69755e-05
0.00773772
0.0101519
3.6206e-06
0.00771367
0.0102966
-0.000106691
0.00767227
0.0102518
-2.96452e-05
0.00764373
0.0101286
0.000141805
0.00763213
0.00998437
0.000255753
0.00763025
0.00986784
0.000250398
0.00761519
0.00977756
0.000141878
0.00760102
0.00960945
5.11787e-05
0.00759068
0.00944034
4.82015e-06
0.00758907
0.00925637
7.31988e-06
0.00759298
0.00909241
4.81149e-05
0.00760127
0.00895585
7.27327e-05
0.00760962
0.00883901
7.08121e-05
0.00761689
0.00872795
5.87516e-05
0.00762274
0.00861008
5.3327e-05
0.00762933
0.00848503
6.07525e-05
0.00763711
0.00835864
7.46762e-05
0.00764596
0.00824032
8.28049e-05
0.00765496
0.00812611
7.88796e-05
0.00766355
0.00801829
6.38999e-05
0.00767055
0.0079073
4.57927e-05
0.00767675
0.00779493
3.50772e-05
0.00768317
0.0076817
2.75731e-05
0.00769044
0.00757155
2.37583e-05
0.00769808
0.00746332
2.33378e-05
0.007706
0.00736213
2.43541e-05
0.00771309
0.00726252
2.85238e-05
0.00771905
0.00717056
3.68111e-05
0.00772421
0.00707735
4.7804e-05
0.0077272
0.00699652
5.88662e-05
0.00772733
0.00690815
6.7336e-05
0.00772504
0.006835
6.88444e-05
0.00771976
0.00674212
6.27289e-05
0.00771356
0.00666517
4.95994e-05
0.00770699
0.00655891
3.34916e-05
0.00770195
0.00646677
2.51145e-05
0.00769674
0.00634564
2.20822e-05
0.00769484
0.00624038
2.26269e-05
0.00768823
0.00611364
3.3344e-05
0.00767667
0.00598714
6.02387e-05
0.00761299
0.00579195
0.000222596
0.00547481
0.000540826
0.00774684
0.00990716
-5.91184e-05
0.00772689
0.00984851
6.20211e-05
0.00774803
0.00972098
0.000155212
0.00778434
0.00968256
0.000154405
0.00780084
0.00973755
9.97069e-05
0.00777667
0.00984321
3.16192e-05
0.00774832
0.00990133
4.53744e-05
0.00773316
0.00997834
6.90356e-05
0.00772161
0.0101233
0.000107123
0.00772688
0.010346
-5.73449e-05
0.00769968
0.0103529
-0.000107997
0.00766315
0.0102788
-0.000151192
0.00763345
0.0100575
-4.56185e-05
0.00761636
0.00984394
9.35732e-05
0.0076083
0.00969468
0.000165913
0.00760134
0.0095535
0.000125176
0.00759381
0.00941115
8.19772e-05
0.00758826
0.00926937
1.76466e-05
0.00758678
0.00911132
8.61037e-06
0.00759161
0.00897099
1.03155e-05
0.00759985
0.00884105
2.18908e-05
0.00760851
0.0087253
2.14243e-05
0.00761517
0.0086101
1.65941e-05
0.00762098
0.00848959
1.24227e-05
0.00762734
0.00836049
1.74843e-05
0.00763533
0.00823131
3.19002e-05
0.00764423
0.0081049
4.75001e-05
0.00765372
0.00798727
5.7817e-05
0.00766187
0.00787426
5.92177e-05
0.00766864
0.0077669
5.20202e-05
0.00767463
0.00766137
4.0471e-05
0.00768103
0.00756055
2.49138e-05
0.00768805
0.00745931
1.23049e-05
0.00769634
0.00736264
2.48213e-06
0.00770418
0.00726742
-4.33243e-06
0.00771097
0.0071765
-4.35375e-06
0.00771515
0.00708343
-2.88284e-06
0.00771775
0.00699505
7.83093e-06
0.0077166
0.00689939
1.74415e-05
0.00771375
0.00681485
3.50465e-05
0.00770899
0.00671565
4.01995e-05
0.00770366
0.00663202
4.74858e-05
0.00769855
0.00653062
3.54258e-05
0.007695
0.00643984
2.98573e-05
0.00769083
0.00632565
1.82949e-05
0.00768983
0.00622217
1.23129e-05
0.00768429
0.00609931
1.94168e-05
0.00767397
0.00597869
3.33021e-05
0.00761218
0.0057827
0.0001897
0.00546093
0.000522052
0.00774627
0.00989068
-2.07701e-05
0.00771924
0.00983943
2.38508e-05
0.00773361
0.0095669
0.000146828
0.00775518
0.00943514
0.000209554
0.00778604
0.00945722
0.000215508
0.00780706
0.00965342
6.43384e-05
0.0077799
0.00991419
-0.000116088
0.00775181
0.0100863
-0.000157929
0.00771892
0.0101683
-3.08756e-05
0.00769557
0.0103062
7.85868e-05
0.00768459
0.0103719
-8.63222e-06
0.00766392
0.0103345
-5.88814e-05
0.0076387
0.0101484
-0.000120066
0.00761855
0.00988021
-7.30381e-05
0.00760699
0.00965175
2.28925e-05
0.0076
0.00947378
7.11643e-05
0.0075965
0.00933255
6.84358e-05
0.00759531
0.00921652
3.2107e-05
0.00759597
0.00908811
-5.96532e-06
0.00759942
0.00895864
-2.09325e-05
0.00760691
0.00882587
-1.96478e-05
0.00761671
0.0087018
-1.15637e-05
0.00762549
0.00858508
-9.25361e-06
0.00763227
0.00847185
-1.59901e-05
0.00763733
0.00835226
-2.44944e-05
0.00764307
0.00822537
-2.55489e-05
0.00764997
0.00809499
-1.95359e-05
0.00765854
0.00796788
-8.0698e-06
0.00766789
0.00784548
2.45935e-06
0.00767695
0.00773242
9.30837e-06
0.00768457
0.00762423
1.30012e-05
0.00769124
0.00752224
1.42912e-05
0.00769726
0.00742524
7.69528e-06
0.00770465
0.0073316
1.4324e-06
0.00771265
0.0072441
-1.0291e-05
0.00772065
0.00716041
-1.94102e-05
0.00772608
0.00707619
-2.93135e-05
0.00772833
0.00699305
-3.31783e-05
0.00772705
0.00689776
-3.18415e-05
0.0077224
0.00680915
-2.24046e-05
0.00771609
0.00670132
-1.03408e-05
0.00770999
0.00660861
1.46686e-06
0.00770364
0.00650085
7.56207e-06
0.0077006
0.00640621
9.42481e-06
0.00769574
0.00629245
1.10238e-05
0.0076944
0.00618999
7.08665e-06
0.00768828
0.00606591
2.46099e-05
0.00767769
0.00595179
4.11138e-05
0.00761601
0.00575725
0.000194566
0.00543475
0.000527343
0.00774906
-5.98282e-05
0.00775033
-0.000230004
0.00773797
-0.000196051
0.00775403
-0.000108548
0.00776457
6.8928e-05
0.00777662
0.000268821
0.00777908
0.000293064
0.00776221
0.000180425
0.00774009
0.000100082
0.00770985
0.000186468
0.00768326
0.000208427
0.00766349
0.000125681
0.0076403
5.59631e-05
0.00761254
3.66608e-06
0.00759773
3.2654e-05
0.00759268
8.26144e-05
0.00758857
0.000130014
0.00758722
0.000133541
0.00758834
0.000107654
0.00758983
8.71583e-05
0.00759315
7.40465e-05
0.00760049
7.03413e-05
0.00761045
6.92035e-05
0.00762088
6.24121e-05
0.00762923
5.05861e-05
0.00763585
3.67954e-05
0.00764121
3.11166e-05
0.00764701
3.05564e-05
0.00765371
3.6569e-05
0.00766194
4.11483e-05
0.00767064
4.56084e-05
0.00767878
5.08819e-05
0.00768544
5.56173e-05
0.00769214
5.51132e-05
0.00769933
5.57773e-05
0.00770714
4.82593e-05
0.00771376
4.068e-05
0.00771741
2.67134e-05
0.00771679
1.7043e-05
0.00771236
1.06856e-05
0.00770482
7.95494e-06
0.00769816
9.39897e-06
0.00769085
1.45061e-05
0.0076874
1.06664e-05
0.00768387
1.33806e-05
0.00768286
7.68888e-06
0.00767782
2.0264e-05
0.00766766
4.30169e-05
0.00760745
0.000187824
0.000540972
0.00256927
0.00337825
0.000203148
-0.00259315
0.00262951
0.00363456
-4.99483e-05
-0.00264229
0.00264472
0.00373838
-0.000224797
-0.00262444
0.00262448
0.0037981
-0.000234979
-0.00261076
0.0026015
0.00383764
-0.000182194
-0.00258961
0.00257531
0.00381005
-5.29506e-05
-0.00257097
0.00256353
0.00376273
6.91747e-05
-0.00256084
0.00255836
0.00369438
0.000131569
-0.00255762
0.00255003
0.00358814
0.00016122
-0.00254782
0.00253655
0.00346369
0.000193894
-0.00253608
0.00253409
0.00335384
0.000209982
-0.00253902
0.00254202
0.00327676
0.000190773
-0.00254863
0.00255266
0.00322206
0.000128373
-0.00255989
0.00256202
0.0031608
7.00856e-05
-0.00256793
0.00256777
0.00310091
3.00733e-05
-0.0025722
0.00257383
0.00303894
1.85251e-05
-0.0025793
0.00258179
0.00297921
1.57694e-05
-0.00258837
0.00258866
0.00292258
3.61805e-05
-0.00259157
0.00259285
0.00286888
3.67073e-05
-0.00259661
0.00259727
0.00282427
3.52336e-05
-0.00260077
0.00260057
0.002781
3.42457e-05
-0.00260336
0.00260246
0.00273739
3.51567e-05
-0.00260462
0.00260343
0.00269495
3.64055e-05
-0.00260554
0.00260508
0.00265364
3.65862e-05
-0.00260791
0.00260824
0.00261397
3.35807e-05
-0.00261164
0.00261234
0.00257514
2.84107e-05
-0.00261588
0.00261619
0.00253665
2.17384e-05
-0.00261933
0.00261921
0.00249733
1.76405e-05
-0.00262198
0.00262147
0.00245852
1.47174e-05
-0.00262371
0.00262308
0.0024209
1.34455e-05
-0.00262516
0.00262466
0.00238485
1.23652e-05
-0.00262697
0.00262652
0.00234988
1.2654e-05
-0.00262875
0.00262854
0.0023165
1.38955e-05
-0.00263081
0.00263023
0.0022848
1.68563e-05
-0.00263216
0.00263154
0.00225464
1.94084e-05
-0.00263332
0.00263266
0.00222607
2.24545e-05
-0.00263444
0.00263389
0.00219894
2.24894e-05
-0.00263563
0.0026352
0.00217264
2.13642e-05
-0.00263716
0.00263671
0.0021471
1.72276e-05
-0.00263832
0.00263734
0.00212081
1.37604e-05
-0.00263903
0.00263868
0.00209277
9.06826e-06
-0.0026401
0.00263786
0.00206369
6.13661e-06
-0.00263864
0.00263798
0.00203237
4.8202e-06
-0.00263896
0.00263568
0.00200164
4.66058e-06
-0.00263548
0.00263471
0.00196995
2.3891e-06
-0.00263543
0.00263168
0.00193911
3.13069e-06
-0.00263113
0.00263022
0.00190553
5.87191e-06
-0.00263121
0.0026274
0.0018721
1.51936e-05
-0.00262582
0.00262806
0.00183034
4.22954e-05
-0.00263495
0.0026265
0.00177751
0.000101741
0.010985
0.0138591
-0.000162504
-0.00330612
-0.00331498
-0.00363687
-0.00363272
0.0110004
0.0140073
0.000404109
-0.00347061
-0.00354665
-0.00354973
-0.0035725
0.0109943
0.0143961
0.000529421
-0.00363849
-0.00369527
-0.00358998
-0.00360522
0.0109362
0.0146234
0.00049122
-0.003717
-0.00374905
-0.00361727
-0.0036434
0.010865
0.0148356
0.000365941
-0.00376704
-0.00377949
-0.0036915
-0.00367951
0.0108187
0.0148207
0.000224674
-0.00375748
-0.00374802
-0.00370765
-0.00369027
0.0107719
0.0145797
0.000176502
-0.00370393
-0.00367884
-0.00364673
-0.00362001
0.010745
0.0142026
0.000141797
-0.003612
-0.00357791
-0.00354787
-0.00351279
0.010718
0.0137823
8.53127e-06
-0.003488
-0.00345224
-0.00343067
-0.00338924
0.0107276
0.0132113
-0.000138808
-0.00334517
-0.00330058
-0.00329063
-0.00325244
0.0106813
0.0127659
4.45149e-05
-0.00323682
-0.00319687
-0.00319734
-0.00316257
0.010692
0.0123742
0.000235546
-0.00314669
-0.00313136
-0.00310701
-0.00309364
0.0107352
0.0120928
0.000354171
-0.00308985
-0.00307728
-0.00304069
-0.00302656
0.0107821
0.0119016
0.000322449
-0.00303868
-0.0030287
-0.00298345
-0.00296972
0.0108196
0.0117305
0.000193221
-0.00299186
-0.00297567
-0.0029339
-0.00291784
0.0108401
0.011556
9.71754e-05
-0.00294022
-0.00292404
-0.00288521
-0.00287293
0.0108611