/*--------------------------------*- C++ -*----------------------------------*\
| =========                 |                                                 |
| \\      /  F ield         | OpenFOAM: The Open Source CFD Toolbox           |
|  \\    /   O peration     | Version:  4.1                                   |
|   \\  /    A nd           | Web:      www.OpenFOAM.org                      |
|    \\/     M anipulation  |                                                 |
\*---------------------------------------------------------------------------*/
FoamFile
{
    version     2.0;
    format      ascii;
    class       volVectorField;
    location    "200";
    object      U;
}
// * * * * * * * * * * * * * * * * * * * * * * * * * * * * * * * * * * * * * //

dimensions      [0 1 -1 0 0 0 0];

internalField   nonuniform List<vector> 
1600
(
(0.99999 0.103557 0.0786763)
(1.00248 0.101502 0.0766067)
(1.00452 0.0971325 0.0756573)
(1.00429 0.0934133 0.0750022)
(1.00473 0.0922011 0.0716434)
(1.00462 0.0936168 0.067765)
(1.00313 0.0973411 0.0649313)
(1.00072 0.0999715 0.0647114)
(0.998144 0.100742 0.066544)
(0.994948 0.100448 0.0685326)
(0.991681 0.0991137 0.06998)
(0.988063 0.0964247 0.0708821)
(0.984685 0.0930726 0.0706173)
(0.981687 0.0903481 0.0696581)
(0.979398 0.0889722 0.0680251)
(0.976826 0.0888341 0.0660982)
(0.975033 0.0895483 0.0645476)
(0.972754 0.0905761 0.0637571)
(0.970722 0.0915579 0.0635744)
(0.968151 0.0921781 0.0637902)
(0.965936 0.092302 0.0641728)
(0.963002 0.0919996 0.0644418)
(0.960507 0.0914297 0.0645142)
(0.957231 0.0906127 0.0643796)
(0.954471 0.0896035 0.0640259)
(0.95095 0.0884894 0.0634999)
(0.948261 0.0872289 0.0627846)
(0.944684 0.0860707 0.0620199)
(0.942369 0.0848616 0.0611543)
(0.939116 0.0838035 0.0603)
(0.937398 0.0828013 0.059544)
(0.934531 0.0818119 0.0587004)
(0.933409 0.0809539 0.0581727)
(0.93106 0.0801191 0.0573612)
(0.930274 0.0793213 0.0567965)
(0.928769 0.0783444 0.0561258)
(0.929095 0.0780459 0.0547746)
(0.92855 0.0770735 0.0525978)
(0.930662 0.0758557 0.0507782)
(0.931441 0.0744325 0.0493769)
(0.934306 0.0728924 0.0481602)
(0.935868 0.0716384 0.0471282)
(0.939859 0.0700637 0.0460092)
(0.942382 0.0688076 0.045062)
(0.947079 0.0669051 0.0439185)
(0.950016 0.0656385 0.0431566)
(0.953239 0.0630028 0.0421319)
(0.952106 0.0616634 0.0416305)
(0.949627 0.0559604 0.0424681)
(0.894445 0.0516086 0.0412437)
(0.999989 0.122811 0.0424873)
(1.00246 0.120017 0.0424131)
(1.00455 0.116328 0.0422693)
(1.00428 0.112575 0.0427529)
(1.00471 0.110281 0.0398042)
(1.00457 0.110266 0.0357061)
(1.00308 0.11297 0.0314137)
(1.00076 0.115912 0.0297564)
(0.998214 0.116871 0.0312695)
(0.99499 0.116195 0.0337616)
(0.991678 0.115146 0.0359543)
(0.988032 0.112898 0.0380485)
(0.984672 0.110182 0.0388067)
(0.981658 0.107595 0.0381938)
(0.979366 0.10594 0.0370995)
(0.97682 0.105321 0.035381)
(0.975054 0.105544 0.0337101)
(0.972777 0.106149 0.0325881)
(0.970734 0.106923 0.0320986)
(0.968164 0.107544 0.0321053)
(0.96593 0.107809 0.032423)
(0.963008 0.107622 0.0327937)
(0.960519 0.107086 0.0330562)
(0.957247 0.106238 0.0331886)
(0.954491 0.105147 0.0331706)
(0.950973 0.10393 0.0330271)
(0.948289 0.102538 0.032739)
(0.944717 0.101231 0.0323697)
(0.942402 0.0998427 0.0319165)
(0.939192 0.0985805 0.0314292)
(0.937372 0.0973922 0.0309966)
(0.934557 0.0961779 0.0305087)
(0.933442 0.0951958 0.0302466)
(0.931102 0.094119 0.0297501)
(0.930312 0.0931618 0.0294392)
(0.928785 0.0920479 0.0290424)
(0.929102 0.0913113 0.0278249)
(0.928555 0.0896678 0.0261529)
(0.930663 0.0879019 0.0248608)
(0.931436 0.0861082 0.0240092)
(0.934323 0.0842716 0.0233141)
(0.935887 0.082771 0.0227571)
(0.939869 0.0809292 0.0221715)
(0.942389 0.0794491 0.0216576)
(0.947082 0.0772846 0.0211453)
(0.950018 0.075832 0.0208023)
(0.953225 0.0730161 0.0206287)
(0.952089 0.0715973 0.0205371)
(0.949611 0.0664179 0.0231123)
(0.894416 0.0619058 0.0233031)
(0.999976 0.129695 0.00241079)
(1.00245 0.127038 0.00393176)
(1.00455 0.123705 0.00483177)
(1.00432 0.119656 0.00590917)
(1.00471 0.116671 0.00477824)
(1.00461 0.115426 0.000749053)
(1.00304 0.116279 -0.00314893)
(1.00066 0.118919 -0.00628172)
(0.998172 0.121383 -0.00591278)
(0.994983 0.121704 -0.00404237)
(0.991701 0.121017 -0.00160355)
(0.988054 0.119127 0.00119493)
(0.984691 0.116428 0.00304555)
(0.981707 0.113912 0.00363737)
(0.979373 0.111793 0.00291917)
(0.976789 0.110815 0.00157569)
(0.975024 0.110669 -1.99199e-05)
(0.972764 0.111026 -0.00137071)
(0.970731 0.111601 -0.00212184)
(0.968163 0.112142 -0.00238117)
(0.965931 0.112456 -0.00221904)
(0.963008 0.112396 -0.00185407)
(0.960516 0.111978 -0.00143941)
(0.957242 0.111204 -0.0010393)
(0.954484 0.110139 -0.000707114)
(0.950964 0.108913 -0.000448636)
(0.948279 0.10749 -0.000271663)
(0.944705 0.106135 -0.000195024)
(0.942387 0.104692 -0.000173806)
(0.939167 0.103361 -0.000226516)
(0.937356 0.102117 -0.000279545)
(0.93454 0.100827 -0.000394155)
(0.933423 0.0998216 -0.00036516)
(0.931083 0.0986517 -0.000523671)
(0.930303 0.0976381 -0.000590547)
(0.928772 0.0964264 -0.000592494)
(0.929097 0.0953479 -0.00149969)
(0.928541 0.093267 -0.0025994)
(0.930643 0.0911939 -0.00331379)
(0.931405 0.0892167 -0.00358414)
(0.9343 0.0872686 -0.00370496)
(0.93585 0.0856672 -0.0037818)
(0.939823 0.0837646 -0.00376899)
(0.942342 0.08221 -0.00380318)
(0.947031 0.080014 -0.00363219)
(0.94997 0.078532 -0.00352274)
(0.953151 0.075815 -0.00282194)
(0.952019 0.0744599 -0.00248201)
(0.949542 0.0703183 0.0015759)
(0.894317 0.0660923 0.00315345)
(1.00002 0.124086 -0.0378486)
(1.00245 0.121422 -0.0354075)
(1.00446 0.119351 -0.0328388)
(1.00425 0.115243 -0.0318255)
(1.0047 0.112206 -0.0322318)
(1.00463 0.110104 -0.0358529)
(1.00311 0.109221 -0.0397228)
(1.0007 0.110751 -0.0420626)
(0.998189 0.112984 -0.0429625)
(0.994994 0.114615 -0.0413214)
(0.99169 0.114848 -0.0390184)
(0.988023 0.113812 -0.0357856)
(0.984643 0.111867 -0.0331798)
(0.981694 0.109559 -0.0320813)
(0.979407 0.107217 -0.0320448)
(0.976817 0.105637 -0.0329755)
(0.975031 0.104962 -0.0343238)
(0.972766 0.104987 -0.0356118)
(0.97073 0.105369 -0.0364851)
(0.968159 0.105864 -0.0369363)
(0.965932 0.10623 -0.0369302)
(0.963014 0.106287 -0.0366118)
(0.960526 0.106012 -0.0361183)
(0.957253 0.105394 -0.0355061)
(0.954494 0.104473 -0.0348563)
(0.950974 0.103364 -0.0342204)
(0.948286 0.102047 -0.0336017)
(0.944715 0.100765 -0.0331003)
(0.942398 0.0993854 -0.032621)
(0.93917 0.0981061 -0.0322407)
(0.937378 0.0969185 -0.0318852)
(0.934557 0.0956778 -0.0315775)
(0.933439 0.0947551 -0.0312383)
(0.931088 0.093608 -0.0310219)
(0.930318 0.0926474 -0.0307981)
(0.928791 0.0915245 -0.0303961)
(0.929117 0.0902235 -0.0308254)
(0.928561 0.0879019 -0.0312116)
(0.930661 0.0857058 -0.0312781)
(0.931432 0.0837078 -0.0309537)
(0.934331 0.0818101 -0.0304917)
(0.935858 0.0802505 -0.0300649)
(0.939829 0.0784567 -0.0294685)
(0.942353 0.0769616 -0.0290105)
(0.947044 0.0749405 -0.0281689)
(0.949986 0.0735739 -0.0276065)
(0.953168 0.0712129 -0.0260813)
(0.95204 0.0700521 -0.0253187)
(0.949563 0.0673636 -0.0201829)
(0.894348 0.0638295 -0.0173703)
(0.999965 0.106621 -0.0742389)
(1.00257 0.104263 -0.0716672)
(1.00451 0.103244 -0.0667725)
(1.00423 0.100715 -0.0639122)
(1.00466 0.0970142 -0.0640442)
(1.00456 0.094246 -0.0668895)
(1.00306 0.0925961 -0.0712327)
(1.00068 0.0930428 -0.0740939)
(0.99817 0.0948647 -0.0752046)
(0.995016 0.0964039 -0.0745305)
(0.991734 0.0973383 -0.0725077)
(0.988071 0.0973614 -0.0690817)
(0.98466 0.0963276 -0.0655439)
(0.981657 0.09465 -0.0635959)
(0.979373 0.0925288 -0.0629969)
(0.976803 0.0906086 -0.0635195)
(0.97502 0.0894273 -0.064653)
(0.972758 0.089046 -0.065893)
(0.970734 0.0891731 -0.0668045)
(0.968157 0.0895435 -0.0672975)
(0.965926 0.08992 -0.0673419)
(0.963002 0.0900832 -0.0670368)
(0.96051 0.0899766 -0.0665203)
(0.957237 0.0895791 -0.0658052)
(0.954477 0.0888997 -0.064952)
(0.950954 0.0880258 -0.0640397)
(0.948262 0.086944 -0.0630545)
(0.944682 0.0858581 -0.06219)
(0.942373 0.0846681 -0.0613168)
(0.939112 0.0835476 -0.0605765)
(0.937356 0.0825271 -0.0598717)
(0.93454 0.0814347 -0.0591868)
(0.933413 0.0806709 -0.0585534)
(0.931051 0.0796455 -0.0579944)
(0.930273 0.0788218 -0.0574972)
(0.928759 0.0778827 -0.0568122)
(0.929091 0.0764374 -0.0569425)
(0.928542 0.0740108 -0.0567333)
(0.930649 0.0718584 -0.0561835)
(0.931423 0.070041 -0.055292)
(0.934291 0.0683894 -0.054244)
(0.935844 0.0670073 -0.0533809)
(0.939825 0.0654678 -0.0522466)
(0.942349 0.0641753 -0.0513519)
(0.947046 0.0625092 -0.0499152)
(0.949987 0.06139 -0.0489633)
(0.953193 0.0596114 -0.0467743)
(0.952066 0.0587459 -0.045668)
(0.949585 0.0577769 -0.0399757)
(0.894378 0.0552767 -0.03621)
(0.999329 0.25008 0.178275)
(1.00362 0.256045 0.177459)
(1.00912 0.266397 0.169517)
(1.00942 0.266313 0.170786)
(1.00891 0.262682 0.176425)
(1.00773 0.255668 0.186579)
(1.0066 0.246541 0.19453)
(1.00354 0.240987 0.193294)
(0.999371 0.235764 0.191135)
(0.996568 0.234571 0.186366)
(0.994656 0.235913 0.180954)
(0.993127 0.242693 0.175199)
(0.990406 0.250105 0.171603)
(0.988331 0.251798 0.173075)
(0.986381 0.251674 0.173926)
(0.983615 0.25037 0.175449)
(0.981162 0.247972 0.17737)
(0.978545 0.245439 0.179214)
(0.976204 0.2434 0.179547)
(0.973717 0.241102 0.178619)
(0.971488 0.238401 0.176936)
(0.968814 0.235531 0.175205)
(0.966799 0.232653 0.173448)
(0.964373 0.229932 0.171596)
(0.962741 0.227294 0.169373)
(0.960445 0.224741 0.167013)
(0.959124 0.221905 0.164507)
(0.95688 0.219087 0.162104)
(0.955882 0.216071 0.159819)
(0.953738 0.213218 0.157736)
(0.953326 0.210502 0.155762)
(0.951486 0.207904 0.153808)
(0.951575 0.205495 0.152003)
(0.950104 0.203096 0.150282)
(0.950629 0.200716 0.148717)
(0.949087 0.198418 0.147468)
(0.949579 0.196529 0.145917)
(0.948136 0.194593 0.144276)
(0.94929 0.192389 0.1421)
(0.94827 0.190199 0.139939)
(0.95009 0.187485 0.137271)
(0.949407 0.185031 0.134947)
(0.951893 0.181963 0.132102)
(0.951769 0.179267 0.129911)
(0.955179 0.175816 0.126946)
(0.955277 0.172756 0.124995)
(0.959107 0.168206 0.121998)
(0.956388 0.164114 0.12109)
(0.95551 0.151129 0.121297)
(0.906599 0.136555 0.120417)
(1.00095 0.294341 0.0921702)
(1.00378 0.297001 0.0956607)
(1.00817 0.306144 0.0917231)
(1.00854 0.310852 0.0919503)
(1.00833 0.313942 0.0968203)
(1.00641 0.3107 0.104562)
(1.00476 0.30475 0.112041)
(1.00476 0.299584 0.111347)
(1.00134 0.294248 0.106013)
(0.997826 0.288214 0.105166)
(0.994929 0.284023 0.101401)
(0.992816 0.283672 0.096981)
(0.990717 0.287771 0.0923769)
(0.987342 0.294805 0.0907169)
(0.985629 0.297666 0.0917669)
(0.983488 0.298534 0.0931783)
(0.981483 0.297087 0.0952532)
(0.97893 0.293879 0.0972623)
(0.976414 0.29068 0.0989031)
(0.973826 0.287587 0.0994138)
(0.971657 0.284385 0.0986119)
(0.969105 0.280993 0.0972306)
(0.967103 0.277476 0.0958554)
(0.964652 0.274051 0.0947329)
(0.963019 0.270711 0.0935919)
(0.960757 0.267605 0.0924199)
(0.959475 0.264371 0.0910628)
(0.957334 0.261229 0.089651)
(0.956433 0.2578 0.0881884)
(0.954393 0.254448 0.0868887)
(0.953911 0.25115 0.0856536)
(0.952123 0.247948 0.0845276)
(0.95221 0.244927 0.0834499)
(0.950751 0.241954 0.0824828)
(0.951241 0.239087 0.0816017)
(0.949664 0.236378 0.081045)
(0.95006 0.233892 0.0800654)
(0.94859 0.231361 0.0790948)
(0.949668 0.228416 0.0776643)
(0.94863 0.225648 0.0763668)
(0.950427 0.222208 0.0745922)
(0.949736 0.219266 0.0731211)
(0.952247 0.215414 0.0711145)
(0.952088 0.212113 0.0697856)
(0.955464 0.207764 0.067842)
(0.955456 0.20409 0.066856)
(0.959282 0.198746 0.0652938)
(0.956525 0.194361 0.0653613)
(0.955674 0.181853 0.069544)
(0.906718 0.167779 0.07329)
(1.00092 0.30972 -0.00400307)
(1.00452 0.310007 -0.00334026)
(1.00725 0.314991 -0.00913177)
(1.00997 0.319211 -0.0107058)
(1.00957 0.322331 -0.0072591)
(1.00827 0.322538 0.000286386)
(1.00403 0.318146 0.0125841)
(1.0019 0.312164 0.0155716)
(1.00121 0.308932 0.0110529)
(0.997522 0.306026 0.00112263)
(0.994843 0.303084 -0.00107578)
(0.992691 0.300815 -0.00417157)
(0.990677 0.30098 -0.00623236)
(0.988924 0.303298 -0.00561999)
(0.985818 0.306928 -0.00371959)
(0.983142 0.30922 -0.00211083)
(0.981092 0.309673 -5.64385e-05)
(0.978677 0.308098 0.00115088)
(0.976264 0.305493 0.00252347)
(0.973655 0.302504 0.0036547)
(0.971463 0.299417 0.0044033)
(0.968918 0.296092 0.00461354)
(0.966916 0.292423 0.00452806)
(0.964392 0.28861 0.00440312)
(0.962676 0.284745 0.0042765)
(0.960361 0.281174 0.00425242)
(0.959046 0.277625 0.00423294)
(0.956853 0.274378 0.0041695)
(0.955958 0.270996 0.00411546)
(0.953895 0.267644 0.00396433)
(0.953373 0.264314 0.00371055)
(0.951563 0.261021 0.00346173)
(0.951664 0.257876 0.00323942)
(0.950255 0.254767 0.00312614)
(0.950808 0.251732 0.00306193)
(0.949213 0.248889 0.00329416)
(0.949577 0.246066 0.00303439)
(0.948017 0.243234 0.00295032)
(0.949109 0.239958 0.00250627)
(0.948024 0.236875 0.00239919)
(0.949843 0.233269 0.00179998)
(0.949253 0.230149 0.00151509)
(0.951787 0.226235 0.000776305)
(0.951748 0.222851 0.000541506)
(0.955187 0.218347 -3.06419e-05)
(0.955233 0.214592 6.46419e-05)
(0.959085 0.209144 0.000186047)
(0.956382 0.205129 0.00153195)
(0.955604 0.194587 0.00933979)
(0.906575 0.182335 0.0174928)
(1.00125 0.293435 -0.100064)
(1.005 0.29522 -0.0992514)
(1.00617 0.296237 -0.105373)
(1.00733 0.305243 -0.11198)
(1.00915 0.309991 -0.11041)
(1.00815 0.311402 -0.106218)
(1.00628 0.309995 -0.0951736)
(1.00272 0.305571 -0.0858544)
(1.00039 0.298364 -0.0781435)
(0.998797 0.294321 -0.0813447)
(0.994902 0.290317 -0.0882838)
(0.99238 0.287263 -0.0943878)
(0.989595 0.287494 -0.101007)
(0.987918 0.288503 -0.10346)
(0.986361 0.291174 -0.102892)
(0.983578 0.294349 -0.100188)
(0.981391 0.295845 -0.0967754)
(0.978921 0.295346 -0.0939631)
(0.976397 0.29304 -0.0917685)
(0.973691 0.290062 -0.0901634)
(0.971503 0.286884 -0.0889487)
(0.969074 0.283846 -0.0878782)
(0.967212 0.280625 -0.0869205)
(0.96478 0.277186 -0.0859912)
(0.96307 0.273445 -0.0850831)
(0.960733 0.269804 -0.0841178)
(0.959407 0.266094 -0.083069)
(0.957244 0.262742 -0.0820907)
(0.956366 0.259386 -0.0810014)
(0.954405 0.2562 -0.079957)
(0.953917 0.253042 -0.0790103)
(0.952071 0.250036 -0.0780533)
(0.95215 0.247121 -0.0772793)
(0.950719 0.244299 -0.0764132)
(0.951345 0.241549 -0.0756305)
(0.949832 0.238975 -0.0746514)
(0.950279 0.236279 -0.0741743)
(0.94874 0.233411 -0.0735139)
(0.949794 0.230057 -0.0729849)
(0.948695 0.22681 -0.0722755)
(0.95041 0.223021 -0.0715934)
(0.949737 0.219844 -0.0708325)
(0.952213 0.21586 -0.0701057)
(0.952134 0.21257 -0.0691987)
(0.955519 0.208144 -0.0681996)
(0.955542 0.20462 -0.0669302)
(0.95936 0.199478 -0.0649621)
(0.956612 0.196182 -0.0623403)
(0.955863 0.188401 -0.0515825)
(0.906779 0.179156 -0.0398523)
(0.999503 0.24711 -0.184882)
(1.00666 0.246617 -0.190061)
(1.00898 0.24465 -0.191259)
(1.00823 0.248543 -0.194326)
(1.0079 0.256521 -0.193175)
(1.00754 0.265696 -0.19001)
(1.00529 0.265368 -0.187009)
(1.00232 0.262781 -0.181211)
(0.99934 0.258423 -0.176631)
(0.998085 0.254067 -0.17309)
(0.996157 0.249636 -0.175372)
(0.993419 0.245559 -0.180264)
(0.990597 0.24445 -0.181783)
(0.987734 0.24468 -0.184438)
(0.98577 0.245109 -0.185534)
(0.983167 0.247423 -0.18557)
(0.981062 0.250003 -0.183757)
(0.978783 0.251357 -0.181566)
(0.976499 0.250802 -0.178901)
(0.973807 0.249053 -0.175914)
(0.971424 0.246522 -0.173294)
(0.968835 0.243748 -0.171014)
(0.966943 0.240748 -0.169008)
(0.964566 0.23765 -0.167143)
(0.962901 0.234319 -0.165231)
(0.960554 0.231083 -0.16328)
(0.959174 0.227777 -0.161092)
(0.956911 0.224731 -0.159044)
(0.955972 0.221766 -0.156931)
(0.953956 0.218949 -0.154929)
(0.953548 0.216218 -0.153069)
(0.951767 0.213585 -0.15116)
(0.951843 0.211136 -0.149412)
(0.950356 0.208714 -0.147655)
(0.950901 0.206452 -0.146005)
(0.949385 0.204374 -0.144357)
(0.94985 0.202061 -0.143102)
(0.948347 0.199538 -0.141652)
(0.949384 0.196418 -0.140008)
(0.948258 0.193398 -0.138295)
(0.949947 0.189744 -0.136283)
(0.94919 0.186771 -0.134495)
(0.951668 0.183106 -0.132308)
(0.95155 0.180117 -0.13037)
(0.954997 0.176162 -0.127887)
(0.955074 0.173237 -0.125619)
(0.958918 0.168881 -0.122144)
(0.95616 0.166708 -0.118604)
(0.955384 0.162679 -0.106227)
(0.906127 0.157508 -0.0922798)
(0.999466 0.410086 0.288001)
(1.00043 0.423739 0.293657)
(1.00413 0.428357 0.294942)
(1.00664 0.427627 0.291196)
(1.00722 0.430176 0.281097)
(1.00782 0.425989 0.272197)
(1.00739 0.427256 0.274339)
(1.00568 0.429385 0.282593)
(1.00213 0.4317 0.287949)
(0.999096 0.429794 0.290763)
(0.994971 0.423654 0.298941)
(0.992146 0.421204 0.308373)
(0.990785 0.417909 0.307906)
(0.989135 0.414745 0.302618)
(0.985383 0.406652 0.293479)
(0.983009 0.39646 0.287176)
(0.982681 0.387426 0.282284)
(0.98283 0.379469 0.279216)
(0.983184 0.37486 0.274809)
(0.983916 0.371183 0.270172)
(0.984601 0.366788 0.265877)
(0.985037 0.361645 0.261781)
(0.985745 0.356284 0.257929)
(0.986535 0.351356 0.254446)
(0.987858 0.346878 0.250941)
(0.988891 0.342681 0.247365)
(0.990259 0.338155 0.243442)
(0.990953 0.333341 0.239691)
(0.992076 0.327961 0.23603)
(0.99246 0.322902 0.232483)
(0.993731 0.31781 0.229229)
(0.994311 0.313195 0.225992)
(0.99591 0.30871 0.22293)
(0.996231 0.304709 0.219912)
(0.997883 0.300718 0.217094)
(0.997831 0.297301 0.214553)
(0.999691 0.29397 0.21203)
(0.999209 0.291181 0.209785)
(1.0008 0.287992 0.207002)
(0.999259 0.285027 0.204518)
(1.00023 0.281125 0.201158)
(0.997654 0.277426 0.198246)
(0.998796 0.272581 0.194783)
(0.99577 0.268638 0.191816)
(0.997792 0.263486 0.188385)
(0.994754 0.259264 0.185385)
(0.997545 0.253421 0.182304)
(0.993029 0.247385 0.180231)
(0.995744 0.233878 0.182176)
(0.966613 0.210399 0.18479)
(1.00199 0.476866 0.151979)
(1.0014 0.478953 0.166391)
(1.00498 0.477218 0.179423)
(1.0069 0.476088 0.1757)
(1.00815 0.474813 0.162658)
(1.005 0.478284 0.14813)
(1.00479 0.480638 0.135436)
(1.00394 0.48863 0.134086)
(1.00288 0.498667 0.138255)
(1.00077 0.497745 0.142152)
(0.995539 0.493045 0.148322)
(0.990763 0.483049 0.163124)
(0.98818 0.47617 0.173187)
(0.987917 0.471798 0.172751)
(0.987169 0.469285 0.166755)
(0.984592 0.461529 0.157938)
(0.982982 0.453782 0.151218)
(0.982258 0.444345 0.147983)
(0.982421 0.436602 0.146324)
(0.983309 0.430522 0.144442)
(0.984523 0.425431 0.142063)
(0.985489 0.420119 0.140139)
(0.986397 0.41411 0.138599)
(0.987008 0.407755 0.137316)
(0.988105 0.401607 0.136077)
(0.989005 0.396078 0.134432)
(0.99041 0.390864 0.132277)
(0.991307 0.385921 0.129588)
(0.992642 0.380649 0.126894)
(0.993115 0.375149 0.124679)
(0.994294 0.369566 0.122681)
(0.994727 0.364142 0.120862)
(0.996245 0.358886 0.119183)
(0.996629 0.353971 0.117635)
(0.998359 0.349164 0.116186)
(0.998394 0.34472 0.114971)
(1.00001 0.340265 0.113939)
(0.999601 0.336497 0.113113)
(1.0009 0.332361 0.112176)
(0.99948 0.328967 0.111221)
(1.00046 0.324561 0.109532)
(0.997968 0.320903 0.107909)
(0.999 0.315688 0.105676)
(0.996081 0.311196 0.10389)
(0.997869 0.305268 0.102098)
(0.994646 0.300234 0.100546)
(0.997358 0.293781 0.0993621)
(0.99271 0.287283 0.098816)
(0.995411 0.274986 0.105005)
(0.96547 0.255072 0.114296)
(1.00176 0.501951 -0.00256477)
(1.0018 0.49975 0.0120161)
(1.00038 0.498458 0.0304721)
(1.00521 0.496255 0.0314176)
(1.00962 0.496142 0.0245592)
(1.0097 0.495557 0.0120748)
(1.00367 0.493261 0.00585344)
(1.00229 0.496799 -0.000689155)
(0.999683 0.509844 -0.00396325)
(1.0002 0.521783 -0.00834775)
(0.999029 0.522717 -0.00511854)
(0.994792 0.51795 -6.98542e-05)
(0.989278 0.507574 0.0107368)
(0.986622 0.498943 0.0201415)
(0.985442 0.492722 0.025356)
(0.984306 0.485925 0.023297)
(0.983448 0.478394 0.0190119)
(0.982518 0.470105 0.0150076)
(0.981977 0.461581 0.0140773)
(0.982164 0.454135 0.0133941)
(0.983177 0.447672 0.0124193)
(0.984299 0.442036 0.0106631)
(0.985432 0.436373 0.00965964)
(0.986036 0.430269 0.00963272)
(0.986928 0.423743 0.0103402)
(0.987667 0.417432 0.0113931)
(0.989005 0.411307 0.012283)
(0.989945 0.405711 0.012532)
(0.991469 0.400197 0.0121999)
(0.99206 0.394736 0.011675)
(0.993248 0.389234 0.010983)
(0.99358 0.383895 0.0100361)
(0.99496 0.378509 0.00918213)
(0.995328 0.373463 0.00831257)
(0.997167 0.368442 0.0076479)
(0.9973 0.363771 0.00741389)
(0.99901 0.358933 0.00731724)
(0.998274 0.354558 0.00790608)
(0.99977 0.34981 0.00815389)
(0.997868 0.345815 0.00921066)
(0.999133 0.341017 0.00927744)
(0.99653 0.337076 0.00962594)
(0.997874 0.331952 0.00910167)
(0.995053 0.32744 0.00889527)
(0.9971 0.321457 0.00840936)
(0.993919 0.316137 0.00815765)
(0.996775 0.309767 0.00859914)
(0.992314 0.303456 0.00947058)
(0.995127 0.293515 0.0183878)
(0.965811 0.277276 0.0335007)
(1.00189 0.474657 -0.156222)
(1.00173 0.474136 -0.141687)
(0.99874 0.465869 -0.121679)
(1.00228 0.464314 -0.125321)
(1.00514 0.466666 -0.137606)
(1.01079 0.473385 -0.162202)
(1.01016 0.477112 -0.185636)
(1.00441 0.478953 -0.189167)
(1.00167 0.48175 -0.184232)
(0.997176 0.495341 -0.178288)
(0.995214 0.496873 -0.170506)
(0.994055 0.495107 -0.163303)
(0.990178 0.486347 -0.155948)
(0.987135 0.475744 -0.148127)
(0.985342 0.46791 -0.141255)
(0.984125 0.46086 -0.137599)
(0.983385 0.453686 -0.137993)
(0.983205 0.446894 -0.13937)
(0.983129 0.43925 -0.139536)
(0.983299 0.432451 -0.138275)
(0.984078 0.42607 -0.135953)
(0.985229 0.420157 -0.134048)
(0.986627 0.414316 -0.132545)
(0.987498 0.408464 -0.131053)
(0.988366 0.402329 -0.129051)
(0.98881 0.396131 -0.126564)
(0.989846 0.390059 -0.123818)
(0.990585 0.384279 -0.12117)
(0.992085 0.378733 -0.119023)
(0.992982 0.373524 -0.11725)
(0.994463 0.368468 -0.115706)
(0.994922 0.363649 -0.114365)
(0.996255 0.358853 -0.113319)
(0.996405 0.354175 -0.112241)
(0.998233 0.349612 -0.111518)
(0.998416 0.34521 -0.110569)
(1.00039 0.340778 -0.10966)
(0.999722 0.336547 -0.108142)
(1.00105 0.331944 -0.106418)
(0.999274 0.327851 -0.104279)
(0.999957 0.323056 -0.101831)
(0.997539 0.318885 -0.099822)
(0.998469 0.314004 -0.0977628)
(0.99581 0.309627 -0.0960445)
(0.997755 0.304265 -0.0940432)
(0.994535 0.299278 -0.0924711)
(0.997307 0.293767 -0.0893822)
(0.992806 0.288493 -0.0863114)
(0.995604 0.281891 -0.0747647)
(0.966172 0.271341 -0.0549933)
(1.0014 0.40793 -0.296276)
(1.00469 0.417728 -0.281844)
(1.00194 0.423259 -0.246851)
(1.00166 0.412269 -0.236021)
(1.00452 0.403003 -0.237237)
(1.00594 0.402197 -0.246779)
(1.00769 0.406883 -0.268637)
(1.0062 0.412003 -0.291775)
(1.0031 0.411059 -0.304346)
(1.00081 0.416925 -0.304953)
(0.995326 0.426717 -0.301899)
(0.993493 0.430667 -0.295882)
(0.990879 0.428291 -0.285988)
(0.986752 0.418669 -0.274698)
(0.984106 0.410605 -0.262741)
(0.982982 0.403773 -0.254136)
(0.982544 0.396784 -0.249703)
(0.982058 0.390559 -0.248623)
(0.982151 0.383867 -0.248273)
(0.982292 0.377626 -0.246779)
(0.982575 0.37192 -0.243692)
(0.983173 0.366726 -0.240309)
(0.984472 0.36181 -0.237318)
(0.985742 0.356969 -0.234805)
(0.987156 0.351957 -0.232181)
(0.987904 0.346672 -0.229034)
(0.988868 0.341305 -0.225294)
(0.989277 0.336167 -0.221207)
(0.990394 0.331043 -0.21722)
(0.990991 0.326288 -0.213719)
(0.992563 0.321684 -0.210517)
(0.993204 0.317347 -0.207505)
(0.994728 0.313161 -0.204858)
(0.994864 0.309169 -0.202419)
(0.996514 0.305345 -0.200288)
(0.99667 0.301727 -0.198517)
(0.998625 0.298055 -0.196746)
(0.998273 0.294559 -0.195037)
(0.999674 0.290545 -0.192695)
(0.997964 0.286967 -0.190251)
(0.998674 0.282551 -0.187041)
(0.99588 0.278815 -0.184043)
(0.997047 0.274343 -0.180695)
(0.993914 0.270417 -0.177902)
(0.996203 0.265639 -0.174669)
(0.993007 0.261352 -0.171904)
(0.995833 0.256591 -0.167911)
(0.991534 0.252851 -0.163581)
(0.994332 0.24969 -0.151403)
(0.965232 0.245143 -0.128974)
(1.00111 0.502013 0.437477)
(1.01499 0.56207 0.45051)
(1.02741 0.584795 0.421538)
(1.01857 0.593014 0.423255)
(1.01129 0.596298 0.438222)
(1.00227 0.583192 0.455662)
(0.997275 0.57125 0.467295)
(0.993874 0.554289 0.47093)
(0.990897 0.534152 0.462835)
(0.987418 0.510238 0.453287)
(0.98452 0.492912 0.441147)
(0.986931 0.485512 0.428364)
(0.991037 0.481914 0.411115)
(0.994739 0.477631 0.393983)
(0.997568 0.471336 0.379795)
(0.999304 0.462605 0.370057)
(1.00215 0.452977 0.36233)
(1.00567 0.442358 0.358148)
(1.0067 0.434043 0.351749)
(1.00856 0.427902 0.346023)
(1.00996 0.421587 0.340785)
(1.01082 0.414919 0.335658)
(1.01129 0.408215 0.330778)
(1.0118 0.40182 0.325919)
(1.01289 0.396018 0.320841)
(1.0144 0.390631 0.315437)
(1.01597 0.385373 0.30979)
(1.01721 0.37978 0.304334)
(1.01815 0.374099 0.299103)
(1.0188 0.368404 0.294249)
(1.01936 0.362901 0.289608)
(1.02009 0.35755 0.285346)
(1.02081 0.352342 0.281503)
(1.02155 0.347296 0.27815)
(1.02206 0.342474 0.274977)
(1.02249 0.337889 0.272065)
(1.02295 0.333756 0.268896)
(1.0234 0.329922 0.265566)
(1.02399 0.326383 0.261934)
(1.02431 0.322694 0.258151)
(1.02464 0.318817 0.254164)
(1.02479 0.314642 0.250042)
(1.02433 0.31002 0.246245)
(1.02411 0.305331 0.242249)
(1.02304 0.300678 0.238188)
(1.02265 0.295827 0.234494)
(1.02125 0.29049 0.230916)
(1.02099 0.284208 0.228536)
(1.01928 0.274578 0.227084)
(1.02312 0.259649 0.230353)
(1.00595 0.668783 0.208851)
(1.01693 0.687256 0.204382)
(1.01966 0.710858 0.207766)
(1.01502 0.717331 0.216289)
(1.00716 0.724522 0.225881)
(1.00155 0.718982 0.23387)
(0.998397 0.701672 0.243107)
(0.994147 0.675403 0.247529)
(0.992764 0.649406 0.239376)
(0.991867 0.621147 0.221587)
(0.988502 0.602869 0.213133)
(0.987334 0.586604 0.209432)
(0.990126 0.572703 0.205903)
(0.994925 0.563233 0.200813)
(0.998988 0.558286 0.189728)
(1.00165 0.552364 0.181815)
(1.00278 0.547133 0.177161)
(1.00573 0.537271 0.171402)
(1.00701 0.528897 0.171179)
(1.00864 0.519768 0.170614)
(1.01066 0.510777 0.168307)
(1.01249 0.501621 0.164238)
(1.01349 0.493479 0.160386)
(1.01368 0.485877 0.157786)
(1.01376 0.478788 0.156196)
(1.01431 0.471995 0.154801)
(1.01549 0.465828 0.152893)
(1.01693 0.459527 0.150432)
(1.01855 0.453475 0.147139)
(1.01973 0.447629 0.143947)
(1.02035 0.441694 0.141161)
(1.02087 0.435435 0.138663)
(1.02127 0.429113 0.136542)
(1.022 0.42274 0.134552)
(1.02243 0.416551 0.132882)
(1.02319 0.410773 0.131593)
(1.02314 0.405031 0.130467)
(1.02385 0.400002 0.129728)
(1.02362 0.39472 0.128638)
(1.02434 0.390338 0.127462)
(1.02406 0.385397 0.125621)
(1.02444 0.381233 0.123385)
(1.02381 0.376161 0.120682)
(1.0238 0.371672 0.118449)
(1.02264 0.366633 0.116067)
(1.02213 0.361844 0.114459)
(1.02096 0.355845 0.11299)
(1.02027 0.349222 0.112437)
(1.02087 0.340794 0.116606)
(1.02026 0.320463 0.12965)
(1.00433 0.703219 -0.0169612)
(1.02318 0.709561 -0.0544712)
(1.01562 0.731488 -0.0605926)
(1.01209 0.743772 -0.0542448)
(1.00888 0.758522 -0.040962)
(1.00069 0.762545 -0.0234895)
(0.989499 0.753985 -0.00577476)
(0.983429 0.736803 0.0133418)
(0.982205 0.717073 0.0281087)
(0.989634 0.685442 0.024295)
(0.995079 0.660674 0.00745962)
(0.991685 0.639942 -0.00140303)
(0.991612 0.624187 -0.00274607)
(0.995457 0.612785 -0.00123438)
(0.999801 0.602069 -0.00251984)
(1.00368 0.592482 -0.00771329)
(1.00512 0.584516 -0.00976266)
(1.00752 0.575194 -0.0143993)
(1.00862 0.565162 -0.0158297)
(1.00905 0.555203 -0.0148976)
(1.00982 0.546514 -0.0118447)
(1.01155 0.537239 -0.0090434)
(1.0138 0.527614 -0.00848777)
(1.01542 0.5183 -0.00947601)
(1.01601 0.509683 -0.0103221)
(1.01629 0.502019 -0.0106602)
(1.01666 0.494959 -0.0104396)
(1.01736 0.488509 -0.00989519)
(1.01851 0.48203 -0.00957788)
(1.01981 0.475422 -0.00996959)
(1.02068 0.468918 -0.0103486)
(1.02139 0.462597 -0.0108714)
(1.02171 0.456172 -0.0111433)
(1.02218 0.449901 -0.0111189)
(1.02277 0.443271 -0.0111176)
(1.02336 0.437294 -0.011062)
(1.02416 0.430917 -0.0108855)
(1.02413 0.425405 -0.0106354)
(1.02503 0.419894 -0.00977354)
(1.02463 0.414706 -0.00916671)
(1.02555 0.409579 -0.00842865)
(1.02498 0.404436 -0.00828094)
(1.02528 0.399014 -0.00881399)
(1.02471 0.393831 -0.00936169)
(1.02443 0.387867 -0.0102503)
(1.02299 0.382368 -0.0108589)
(1.02301 0.376666 -0.0102703)
(1.02046 0.369769 -0.00922541)
(1.02283 0.363289 -0.00265309)
(1.02111 0.346953 0.0169757)
(1.00645 0.657115 -0.227173)
(1.02395 0.663616 -0.283188)
(1.01987 0.673815 -0.280288)
(1.00761 0.683461 -0.260495)
(1.00467 0.687075 -0.238449)
(1.00749 0.689957 -0.221951)
(1.00491 0.681354 -0.206962)
(0.994391 0.666202 -0.195382)
(0.983651 0.655962 -0.179397)
(0.984313 0.640524 -0.169772)
(0.990943 0.61257 -0.174463)
(0.992548 0.588838 -0.184196)
(0.992784 0.571426 -0.189086)
(0.994113 0.558311 -0.187512)
(0.996573 0.552257 -0.181745)
(1.00136 0.543553 -0.177904)
(1.00349 0.536753 -0.175242)
(1.00609 0.529731 -0.175102)
(1.00775 0.522128 -0.174786)
(1.00895 0.513732 -0.173724)
(1.00963 0.505995 -0.172548)
(1.01028 0.499104 -0.169528)
(1.01183 0.491525 -0.16592)
(1.01382 0.482992 -0.162962)
(1.01557 0.474118 -0.160781)
(1.01648 0.465598 -0.158639)
(1.01707 0.457987 -0.156486)
(1.01748 0.451252 -0.154132)
(1.01795 0.445424 -0.151616)
(1.01894 0.43971 -0.149258)
(1.01992 0.434298 -0.147164)
(1.02096 0.429168 -0.145324)
(1.02166 0.423858 -0.143936)
(1.0221 0.41872 -0.142647)
(1.0226 0.413045 -0.141267)
(1.0231 0.407229 -0.139948)
(1.0237 0.401332 -0.138511)
(1.0244 0.395277 -0.137136)
(1.02427 0.389789 -0.135395)
(1.02533 0.384468 -0.133262)
(1.02442 0.379221 -0.131072)
(1.02538 0.374815 -0.128694)
(1.02412 0.369506 -0.126652)
(1.02431 0.364962 -0.125037)
(1.02367 0.359837 -0.123236)
(1.02234 0.35472 -0.122156)
(1.02288 0.350319 -0.120057)
(1.02007 0.344482 -0.117286)
(1.02261 0.341309 -0.10939)
(1.02084 0.331719 -0.0868514)
(1.00311 0.558996 -0.426024)
(1.03039 0.532234 -0.489484)
(1.02225 0.542339 -0.528936)
(1.01302 0.569258 -0.529357)
(0.998059 0.596895 -0.49952)
(0.991633 0.61359 -0.464903)
(0.992062 0.620266 -0.436226)
(0.994642 0.608475 -0.415142)
(0.988141 0.595116 -0.396045)
(0.982263 0.58066 -0.377817)
(0.986192 0.564448 -0.370928)
(0.992742 0.537087 -0.372809)
(0.995316 0.515756 -0.375698)
(0.998394 0.494906 -0.377135)
(0.999303 0.481953 -0.372871)
(1.00209 0.473991 -0.366901)
(1.00547 0.466128 -0.356709)
(1.00745 0.460446 -0.351718)
(1.00941 0.453752 -0.346946)
(1.01097 0.44689 -0.342491)
(1.01175 0.439216 -0.338296)
(1.01187 0.432346 -0.333654)
(1.01206 0.425852 -0.328423)
(1.01326 0.419378 -0.323368)
(1.015 0.412411 -0.318661)
(1.01688 0.405029 -0.314462)
(1.01807 0.397791 -0.31004)
(1.01913 0.390872 -0.305822)
(1.01958 0.384694 -0.301211)
(1.02012 0.378921 -0.296898)
(1.02079 0.373469 -0.292597)