# vtk DataFile Version 4.0
vtk output
ASCII
DATASET UNSTRUCTURED_GRID
POINTS 525 float
5.0000000e+01 5.0000000e+01 0.0000000e+00 
5.0000000e+01 -5.0000000e+01 0.0000000e+00 
-5.0000000e+01 5.0000000e+01 0.0000000e+00 
-5.0000000e+01 -5.0000000e+01 0.0000000e+00 
-5.0000000e+01 -4.5572778e+01 0.0000000e+00 
-5.0000000e+01 -4.1635760e+01 0.0000000e+00 
-5.0000000e+01 -3.6464983e+01 0.0000000e+00 
-5.0000000e+01 -3.2045363e+01 0.0000000e+00 
-5.0000000e+01 -2.7875855e+01 0.0000000e+00 
-5.0000000e+01 -2.4069874e+01 0.0000000e+00 
-5.0000000e+01 -2.0046987e+01 0.0000000e+00 
-5.0000000e+01 -1.5959893e+01 0.0000000e+00 
-5.0000000e+01 -1.1956759e+01 0.0000000e+00 
-5.0000000e+01 -8.6988641e+00 0.0000000e+00 
-5.0000000e+01 -1.4057661e+00 0.0000000e+00 
-5.0000000e+01 2.1768357e+00 0.0000000e+00 
-5.0000000e+01 6.1485312e+00 0.0000000e+00 
-5.0000000e+01 1.0483361e+01 0.0000000e+00 
-5.0000000e+01 1.4485443e+01 0.0000000e+00 
-5.0000000e+01 1.8385653e+01 0.0000000e+00 
-5.0000000e+01 2.2383277e+01 0.0000000e+00 
-5.0000000e+01 2.6534787e+01 0.0000000e+00 
3.8785753e+01 1.6556184e+01 0.0000000e+00 
-5.0000000e+01 3.4273730e+01 0.0000000e+00 
-5.0000000e+01 3.8552160e+01 0.0000000e+00 
-5.0000000e+01 4.2542506e+01 0.0000000e+00 
-5.0000000e+01 4.6030636e+01 0.0000000e+00 
1.6438776e+01 -4.7073931e+01 0.0000000e+00 
-4.1639844e+01 -5.0000000e+01 0.0000000e+00 
-3.6887394e+01 -5.0000000e+01 0.0000000e+00 
-3.2877462e+01 -5.0000000e+01 0.0000000e+00 
-2.9187389e+01 -5.0000000e+01 0.0000000e+00 
-2.4866181e+01 -5.0000000e+01 0.0000000e+00 
-2.0689336e+01 -5.0000000e+01 0.0000000e+00 
-1.6605344e+01 -5.0000000e+01 0.0000000e+00 
-1.2299885e+01 -5.0000000e+01 0.0000000e+00 
-8.4525404e+00 -5.0000000e+01 0.0000000e+00 
-4.4734493e+00 -5.0000000e+01 0.0000000e+00 
-6.3641258e-01 -5.0000000e+01 0.0000000e+00 
3.1391306e+00 -5.0000000e+01 0.0000000e+00 
7.1088020e+00 -5.0000000e+01 0.0000000e+00 
1.1066954e+01 -5.0000000e+01 0.0000000e+00 
1.8681698e+01 -5.0000000e+01 0.0000000e+00 
2.2636853e+01 -5.0000000e+01 0.0000000e+00 
3.0407430e+01 -5.0000000e+01 0.0000000e+00 
3.4245918e+01 -5.0000000e+01 0.0000000e+00 
3.8267030e+01 -5.0000000e+01 0.0000000e+00 
4.2284298e+01 -5.0000000e+01 0.0000000e+00 
4.6012602e+01 -5.0000000e+01 0.0000000e+00 
-4.5720328e+01 5.0000000e+01 0.0000000e+00 
-4.0923575e+01 5.0000000e+01 0.0000000e+00 
-3.3453075e+01 5.0000000e+01 0.0000000e+00 
-2.9839121e+01 5.0000000e+01 0.0000000e+00 
-2.6393863e+01 5.0000000e+01 0.0000000e+00 
-2.2349491e+01 5.0000000e+01 0.0000000e+00 
-1.8079521e+01 5.0000000e+01 0.0000000e+00 
-1.3641414e+01 5.0000000e+01 0.0000000e+00 
-9.2156959e+00 5.0000000e+01 0.0000000e+00 
-5.1221136e+00 5.0000000e+01 0.0000000e+00 
2.1902169e+00 5.0000000e+01 0.0000000e+00 
5.6957456e+00 5.0000000e+01 0.0000000e+00 
9.2404200e+00 5.0000000e+01 0.0000000e+00 
-1.4763454e+01 3.3343347e+01 0.0000000e+00 
1.7356615e+01 5.0000000e+01 0.0000000e+00 
2.1250784e+01 5.0000000e+01 0.0000000e+00 
2.8666737e+01 5.0000000e+01 0.0000000e+00 
3.3060714e+01 5.0000000e+01 0.0000000e+00 
3.7163037e+01 5.0000000e+01 0.0000000e+00 
4.1607789e+01 5.0000000e+01 0.0000000e+00 
5.9294602e+00 4.1002519e+01 0.0000000e+00 
5.0000000e+01 -4.6086299e+01 0.0000000e+00 
5.0000000e+01 -4.2047797e+01 0.0000000e+00 
5.0000000e+01 -3.8546144e+01 0.0000000e+00 
5.0000000e+01 -3.4564420e+01 0.0000000e+00 
5.0000000e+01 -3.0502696e+01 0.0000000e+00 
5.0000000e+01 -2.6694960e+01 0.0000000e+00 
5.0000000e+01 -2.2605298e+01 0.0000000e+00 
5.0000000e+01 -1.8583108e+01 0.0000000e+00 
5.0000000e+01 -1.4578693e+01 0.0000000e+00 
5.0000000e+01 -1.0577922e+01 0.0000000e+00 
5.0000000e+01 -6.5777992e+00 0.0000000e+00 
5.0000000e+01 -2.5777808e+00 0.0000000e+00 
5.0000000e+01 1.4222218e+00 0.0000000e+00 
5.0000000e+01 5.4222222e+00 0.0000000e+00 
5.0000000e+01 9.4222222e+00 0.0000000e+00 
5.0000000e+01 1.3421960e+01 0.0000000e+00 
5.0000000e+01 1.7414506e+01 0.0000000e+00 
5.0000000e+01 2.1343575e+01 0.0000000e+00 
5.0000000e+01 2.5534048e+01 0.0000000e+00 
5.0000000e+01 2.9557221e+01 0.0000000e+00 
5.0000000e+01 3.3372672e+01 0.0000000e+00 
5.0000000e+01 3.7373596e+01 0.0000000e+00 
5.0000000e+01 4.1725585e+01 0.0000000e+00 
5.0000000e+01 4.5584977e+01 0.0000000e+00 
-3.8792829e+01 4.5932607e+01 0.0000000e+00 
4.3816513e+01 4.6438551e+01 0.0000000e+00 
-2.0835588e+01 -4.2972460e+01 0.0000000e+00 
-7.9099523e+00 -3.9879111e+01 0.0000000e+00 
-4.6369299e+01 -3.9379658e+01 0.0000000e+00 
-3.9211793e+00 -3.5264091e+01 0.0000000e+00 
-4.6182236e+01 -2.6600037e+01 0.0000000e+00 
-4.6371196e+01 -2.2317179e+01 0.0000000e+00 
-4.6599501e+01 -1.8000005e+01 0.0000000e+00 
-4.6351060e+01 -1.4104789e+01 0.0000000e+00 
3.6397590e+01 1.3292686e+01 0.0000000e+00 
-3.2344046e+01 3.3917472e+01 0.0000000e+00 
6.1708792e+00 -3.4750525e+01 0.0000000e+00 
-4.4443313e+01 8.2647379e+00 0.0000000e+00 
-4.5997026e+01 1.1995291e+01 0.0000000e+00 
-4.6401484e+01 1.6332259e+01 0.0000000e+00 
-4.6421733e+01 2.0140560e+01 0.0000000e+00 
-4.6286794e+01 2.3890366e+01 0.0000000e+00 
-4.5659159e+01 2.8057849e+01 0.0000000e+00 
-4.5195660e+01 3.2731933e+01 0.0000000e+00 
2.4813858e+01 5.0000000e+01 0.0000000e+00 
4.5990573e+01 3.1861060e+01 0.0000000e+00 
2.8033625e+00 3.2324144e+01 0.0000000e+00 
-4.3367133e+01 -4.6528030e+01 0.0000000e+00 
-3.5165971e+01 -4.6115392e+01 0.0000000e+00 
-2.6676422e+01 -4.5670837e+01 0.0000000e+00 
-2.5057902e+01 2.5731305e+01 0.0000000e+00 
9.9447468e+00 -3.4616889e+01 0.0000000e+00 
2.7607457e+00 -4.3827200e+01 0.0000000e+00 
1.0456114e+01 -4.2746596e+01 0.0000000e+00 
-4.6484056e+01 -3.0503610e+01 0.0000000e+00 
3.5448124e+01 -4.6193650e+01 0.0000000e+00 
4.3665400e+01 -4.6175243e+01 0.0000000e+00 
-1.8652020e+01 3.9535815e+01 0.0000000e+00 
-2.4191328e+01 -2.9074023e+01 0.0000000e+00 
-6.9624918e-01 3.2343864e+01 0.0000000e+00 
-9.4649079e+00 4.4605867e+01 0.0000000e+00 
1.1838383e+01 4.3751751e+01 0.0000000e+00 
4.6124163e+01 -2.4469184e+01 0.0000000e+00 
4.5907989e+01 -1.6347945e+01 0.0000000e+00 
4.5995681e+01 -7.7405291e+00 0.0000000e+00 
4.6365141e+01 8.1812000e+00 0.0000000e+00 
4.6334475e+01 1.5912663e+01 0.0000000e+00 
4.2968418e+01 2.8531899e+00 0.0000000e+00 
4.2337544e+01 7.1214746e+00 0.0000000e+00 
4.2433508e+01 1.0493552e+01 0.0000000e+00 
-3.4733556e+01 -3.8745629e+01 0.0000000e+00 
3.6365537e+01 1.9744090e+01 0.0000000e+00 
3.4775737e+01 2.2562671e+01 0.0000000e+00 
3.2000962e+01 2.5326032e+01 0.0000000e+00 
2.9129990e+01 2.7378953e+01 0.0000000e+00 
2.5684874e+01 2.9510503e+01 0.0000000e+00 
1.7855386e+01 3.3212469e+01 0.0000000e+00 
1.3687453e+01 3.4411336e+01 0.0000000e+00 
1.1475413e+01 3.7787429e+01 0.0000000e+00 
3.8073009e+01 9.3720650e+00 0.0000000e+00 
3.2034283e+00 3.8867854e+01 0.0000000e+00 
-8.2702781e-01 3.9718631e+01 0.0000000e+00 
-3.9527619e+01 -3.4602836e+01 0.0000000e+00 
-1.0248114e+01 3.8306961e+01 0.0000000e+00 
-1.8147324e+01 3.5319772e+01 0.0000000e+00 
-2.1703127e+01 3.3462377e+01 0.0000000e+00 
-2.5474144e+01 3.1851173e+01 0.0000000e+00 
-2.8294575e+01 2.8497688e+01 0.0000000e+00 
6.6406244e+00 -4.3217911e+01 0.0000000e+00 
-3.5152619e+01 2.3435272e+01 0.0000000e+00 
-3.8579280e+01 2.0875957e+01 0.0000000e+00 
-4.7845375e+01 3.0504707e+01 0.0000000e+00 
1.0619266e+01 4.6977065e+01 0.0000000e+00 
-4.3276566e+01 4.4445599e+00 0.0000000e+00 
-4.2943628e+01 9.3234527e-01 0.0000000e+00 
-8.7359797e+00 3.5258945e+01 0.0000000e+00 
-4.2705983e+01 -7.6366681e+00 0.0000000e+00 
-7.7385603e+00 -4.2918759e+01 0.0000000e+00 
-3.5801086e+01 -2.0872535e+01 0.0000000e+00 
-3.2785685e+01 -2.4051114e+01 0.0000000e+00 
-2.9937855e+01 -2.6760747e+01 0.0000000e+00 
-2.7333750e+01 -2.9575605e+01 0.0000000e+00 
-2.4642948e+01 -3.2434582e+01 0.0000000e+00 
-2.0626343e+01 -3.3653613e+01 0.0000000e+00 
-1.6574214e+01 -3.4316710e+01 0.0000000e+00 
-1.4395303e+01 -3.7350921e+01 0.0000000e+00 
1.9976430e+01 -4.7296167e+01 0.0000000e+00 
4.9311051e+00 -3.7663884e+01 0.0000000e+00 
4.7114497e+01 4.7173068e+01 0.0000000e+00 
2.0192102e+01 -3.5380437e+01 0.0000000e+00 
2.3881109e+01 -3.2715630e+01 0.0000000e+00 
2.9738291e+01 -2.6751468e+01 0.0000000e+00 
3.3682173e+01 -2.5256991e+01 0.0000000e+00 
3.7167656e+01 -2.2336994e+01 0.0000000e+00 
4.2597394e+01 -1.3954647e+01 0.0000000e+00 
4.2401984e+01 -9.6324723e+00 0.0000000e+00 
4.2890738e+01 -5.1397563e+00 0.0000000e+00 
4.2989797e+01 -1.1804156e+00 0.0000000e+00 
-3.9296525e+01 -4.6259637e+01 0.0000000e+00 
-3.1061514e+01 -4.6145506e+01 0.0000000e+00 
-1.3551953e+01 -4.3465772e+01 0.0000000e+00 
1.4856156e+01 -4.3885891e+01 0.0000000e+00 
3.1425159e+01 -4.5901590e+01 0.0000000e+00 
3.9401819e+01 -4.6331950e+01 0.0000000e+00 
4.6010392e+01 -3.6376165e+01 0.0000000e+00 
4.5903395e+01 -2.0612170e+01 0.0000000e+00 
4.6136464e+01 -1.2161456e+01 0.0000000e+00 
4.6355162e+01 -4.0516420e+00 0.0000000e+00 
4.6283280e+01 4.2996996e+00 0.0000000e+00 
4.6373738e+01 1.1811368e+01 0.0000000e+00 
5.3287037e+00 3.5089519e+01 0.0000000e+00 
4.6386973e+01 3.5831194e+01 0.0000000e+00 
-3.5732586e+01 -1.4471276e+01 0.0000000e+00 
-4.2840150e+01 -3.7403719e+01 0.0000000e+00 
-4.2979887e+01 -3.3012900e+01 0.0000000e+00 
-4.2432755e+01 -2.4307597e+01 0.0000000e+00 
-4.0134953e+01 -2.0532857e+01 0.0000000e+00 
-4.1983708e+01 3.9708307e+01 0.0000000e+00 
-2.4964206e+01 -4.2635151e+01 0.0000000e+00 
-3.2659548e+01 -4.2416173e+01 0.0000000e+00 
-1.7940417e+01 -4.0134874e+01 0.0000000e+00 
2.0545541e+01 -3.8920311e+01 0.0000000e+00 
2.9016234e+01 -4.1723753e+01 0.0000000e+00 
-2.8065648e+01 2.3531901e+01 0.0000000e+00 
4.0690515e+01 -4.2864124e+01 0.0000000e+00 
4.2657977e+01 -2.6893353e+01 0.0000000e+00 
-4.1747531e+01 -4.2256199e+01 0.0000000e+00 
-3.8719834e+01 4.1846731e+01 0.0000000e+00 
-2.5490261e+01 4.1106062e+01 0.0000000e+00 
-1.7313882e+01 4.3082641e+01 0.0000000e+00 
2.4673746e+01 4.2354222e+01 0.0000000e+00 
3.5598654e+01 -3.1782344e+01 0.0000000e+00 
3.8192659e+01 4.2493236e+01 0.0000000e+00 
4.2611033e+01 4.2420477e+01 0.0000000e+00 
4.2393590e+01 -3.8648419e+01 0.0000000e+00 
[...]
POINT_DATA 525
FIELD FieldData 3
SHAPE_UPDATE 3 525  float
0.0000000e+00 0.0000000e+00 0.0000000e+00 
0.0000000e+00 0.0000000e+00 0.0000000e+00 
0.0000000e+00 0.0000000e+00 0.0000000e+00 
0.0000000e+00 0.0000000e+00 0.0000000e+00 
0.0000000e+00 0.0000000e+00 0.0000000e+00 
0.0000000e+00 0.0000000e+00 0.0000000e+00 
0.0000000e+00 0.0000000e+00 0.0000000e+00 
0.0000000e+00 0.0000000e+00 0.0000000e+00 
0.0000000e+00 0.0000000e+00 0.0000000e+00 
0.0000000e+00 0.0000000e+00 0.0000000e+00 
0.0000000e+00 0.0000000e+00 0.0000000e+00 
0.0000000e+00 0.0000000e+00 0.0000000e+00 
0.0000000e+00 0.0000000e+00 0.0000000e+00 
0.0000000e+00 0.0000000e+00 0.0000000e+00 
0.0000000e+00 0.0000000e+00 0.0000000e+00 
0.0000000e+00 0.0000000e+00 0.0000000e+00 
0.0000000e+00 0.0000000e+00 0.0000000e+00 
0.0000000e+00 0.0000000e+00 0.0000000e+00 
0.0000000e+00 0.0000000e+00 0.0000000e+00 
0.0000000e+00 0.0000000e+00 0.0000000e+00 
0.0000000e+00 0.0000000e+00 0.0000000e+00 
0.0000000e+00 0.0000000e+00 0.0000000e+00 
0.0000000e+00 0.0000000e+00 0.0000000e+00 
0.0000000e+00 0.0000000e+00 0.0000000e+00 
0.0000000e+00 0.0000000e+00 0.0000000e+00 
0.0000000e+00 0.0000000e+00 0.0000000e+00 
0.0000000e+00 0.0000000e+00 0.0000000e+00 
0.0000000e+00 0.0000000e+00 0.0000000e+00 
0.0000000e+00 0.0000000e+00 0.0000000e+00 
0.0000000e+00 0.0000000e+00 0.0000000e+00 
0.0000000e+00 0.0000000e+00 0.0000000e+00 
0.0000000e+00 0.0000000e+00 0.0000000e+00 
0.0000000e+00 0.0000000e+00 0.0000000e+00 
0.0000000e+00 0.0000000e+00 0.0000000e+00 
0.0000000e+00 0.0000000e+00 0.0000000e+00 
0.0000000e+00 0.0000000e+00 0.0000000e+00 
0.0000000e+00 0.0000000e+00 0.0000000e+00 
0.0000000e+00 0.0000000e+00 0.0000000e+00 
0.0000000e+00 0.0000000e+00 0.0000000e+00 
0.0000000e+00 0.0000000e+00 0.0000000e+00 
0.0000000e+00 0.0000000e+00 0.0000000e+00 
0.0000000e+00 0.0000000e+00 0.0000000e+00 
0.0000000e+00 0.0000000e+00 0.0000000e+00 
0.0000000e+00 0.0000000e+00 0.0000000e+00 
0.0000000e+00 0.0000000e+00 0.0000000e+00 
0.0000000e+00 0.0000000e+00 0.0000000e+00 
0.0000000e+00 0.0000000e+00 0.0000000e+00 
0.0000000e+00 0.0000000e+00 0.0000000e+00 
0.0000000e+00 0.0000000e+00 0.0000000e+00 
0.0000000e+00 0.0000000e+00 0.0000000e+00 
0.0000000e+00 0.0000000e+00 0.0000000e+00 
0.0000000e+00 0.0000000e+00 0.0000000e+00 
0.0000000e+00 0.0000000e+00 0.0000000e+00 
0.0000000e+00 0.0000000e+00 0.0000000e+00 
0.0000000e+00 0.0000000e+00 0.0000000e+00 
0.0000000e+00 0.0000000e+00 0.0000000e+00 
0.0000000e+00 0.0000000e+00 0.0000000e+00 
0.0000000e+00 0.0000000e+00 0.0000000e+00 
0.0000000e+00 0.0000000e+00 0.0000000e+00 
0.0000000e+00 0.0000000e+00 0.0000000e+00 
0.0000000e+00 0.0000000e+00 0.0000000e+00 
0.0000000e+00 0.0000000e+00 0.0000000e+00 
0.0000000e+00 0.0000000e+00 0.0000000e+00 
0.0000000e+00 0.0000000e+00 0.0000000e+00 
0.0000000e+00 0.0000000e+00 0.0000000e+00 
0.0000000e+00 0.0000000e+00 0.0000000e+00 
0.0000000e+00 0.0000000e+00 0.0000000e+00 
0.0000000e+00 0.0000000e+00 0.0000000e+00 
0.0000000e+00 0.0000000e+00 0.0000000e+00 
0.0000000e+00 0.0000000e+00 0.0000000e+00 
0.0000000e+00 0.0000000e+00 0.0000000e+00 
0.0000000e+00 0.0000000e+00 0.0000000e+00 
0.0000000e+00 0.0000000e+00 0.0000000e+00 
0.0000000e+00 0.0000000e+00 0.0000000e+00 
0.0000000e+00 0.0000000e+00 0.0000000e+00 
0.0000000e+00 0.0000000e+00 0.0000000e+00 
0.0000000e+00 0.0000000e+00 0.0000000e+00 
0.0000000e+00 0.0000000e+00 0.0000000e+00 
0.0000000e+00 0.0000000e+00 0.0000000e+00 
0.0000000e+00 0.0000000e+00 0.0000000e+00 
0.0000000e+00 0.0000000e+00 0.0000000e+00 
0.0000000e+00 0.0000000e+00 0.0000000e+00 
0.0000000e+00 0.0000000e+00 0.0000000e+00 
0.0000000e+00 0.0000000e+00 0.0000000e+00 
0.0000000e+00 0.0000000e+00 0.0000000e+00 
0.0000000e+00 0.0000000e+00 0.0000000e+00 
0.0000000e+00 0.0000000e+00 0.0000000e+00 
0.0000000e+00 0.0000000e+00 0.0000000e+00 
0.0000000e+00 0.0000000e+00 0.0000000e+00 
0.0000000e+00 0.0000000e+00 0.0000000e+00 
0.0000000e+00 0.0000000e+00 0.0000000e+00 
0.0000000e+00 0.0000000e+00 0.0000000e+00 
0.0000000e+00 0.0000000e+00 0.0000000e+00 
0.0000000e+00 0.0000000e+00 0.0000000e+00 
0.0000000e+00 0.0000000e+00 0.0000000e+00 
0.0000000e+00 0.0000000e+00 0.0000000e+00 
0.0000000e+00 0.0000000e+00 0.0000000e+00 
0.0000000e+00 0.0000000e+00 0.0000000e+00 
0.0000000e+00 0.0000000e+00 0.0000000e+00 
0.0000000e+00 0.0000000e+00 0.0000000e+00 
0.0000000e+00 0.0000000e+00 0.0000000e+00 
0.0000000e+00 0.0000000e+00 0.0000000e+00 
0.0000000e+00 0.0000000e+00 0.0000000e+00 
0.0000000e+00 0.0000000e+00 0.0000000e+00 
-1.3615748e+00 -1.1682443e+00 0.0000000e+00 
0.0000000e+00 0.0000000e+00 0.0000000e+00 
0.0000000e+00 0.0000000e+00 0.0000000e+00 
0.0000000e+00 0.0000000e+00 0.0000000e+00 
0.0000000e+00 0.0000000e+00 0.0000000e+00 
0.0000000e+00 0.0000000e+00 0.0000000e+00 
0.0000000e+00 0.0000000e+00 0.0000000e+00 
0.0000000e+00 0.0000000e+00 0.0000000e+00 
0.0000000e+00 0.0000000e+00 0.0000000e+00 
0.0000000e+00 0.0000000e+00 0.0000000e+00 
0.0000000e+00 0.0000000e+00 0.0000000e+00 
0.0000000e+00 0.0000000e+00 0.0000000e+00 
-2.7514652e-01 -7.6249093e+00 0.0000000e+00 
0.0000000e+00 0.0000000e+00 0.0000000e+00 
0.0000000e+00 0.0000000e+00 0.0000000e+00 
0.0000000e+00 0.0000000e+00 0.0000000e+00 
2.4039127e+00 -4.3496074e+00 0.0000000e+00 
0.0000000e+00 0.0000000e+00 0.0000000e+00 
0.0000000e+00 0.0000000e+00 0.0000000e+00 
0.0000000e+00 0.0000000e+00 0.0000000e+00 
0.0000000e+00 0.0000000e+00 0.0000000e+00 
0.0000000e+00 0.0000000e+00 0.0000000e+00 
0.0000000e+00 0.0000000e+00 0.0000000e+00 
0.0000000e+00 0.0000000e+00 0.0000000e+00 
0.0000000e+00 0.0000000e+00 0.0000000e+00 
1.4246038e-01 -7.6811997e+00 0.0000000e+00 
0.0000000e+00 0.0000000e+00 0.0000000e+00 
0.0000000e+00 0.0000000e+00 0.0000000e+00 
0.0000000e+00 0.0000000e+00 0.0000000e+00 
0.0000000e+00 0.0000000e+00 0.0000000e+00 
0.0000000e+00 0.0000000e+00 0.0000000e+00 
0.0000000e+00 0.0000000e+00 0.0000000e+00 
0.0000000e+00 0.0000000e+00 0.0000000e+00 
0.0000000e+00 0.0000000e+00 0.0000000e+00 
0.0000000e+00 0.0000000e+00 0.0000000e+00 
0.0000000e+00 0.0000000e+00 0.0000000e+00 
0.0000000e+00 0.0000000e+00 0.0000000e+00 
0.0000000e+00 0.0000000e+00 0.0000000e+00 
0.0000000e+00 0.0000000e+00 0.0000000e+00 
0.0000000e+00 0.0000000e+00 0.0000000e+00 
0.0000000e+00 0.0000000e+00 0.0000000e+00 
0.0000000e+00 0.0000000e+00 0.0000000e+00 
0.0000000e+00 0.0000000e+00 0.0000000e+00 
0.0000000e+00 0.0000000e+00 0.0000000e+00 
0.0000000e+00 0.0000000e+00 0.0000000e+00 
-9.8204627e-01 -6.6871407e-01 0.0000000e+00 
0.0000000e+00 0.0000000e+00 0.0000000e+00 
0.0000000e+00 0.0000000e+00 0.0000000e+00 
0.0000000e+00 0.0000000e+00 0.0000000e+00 
0.0000000e+00 0.0000000e+00 0.0000000e+00 
0.0000000e+00 0.0000000e+00 0.0000000e+00 
0.0000000e+00 0.0000000e+00 0.0000000e+00 
0.0000000e+00 0.0000000e+00 0.0000000e+00 
0.0000000e+00 0.0000000e+00 0.0000000e+00 
0.0000000e+00 0.0000000e+00 0.0000000e+00 
0.0000000e+00 0.0000000e+00 0.0000000e+00 
0.0000000e+00 0.0000000e+00 0.0000000e+00 
0.0000000e+00 0.0000000e+00 0.0000000e+00 
0.0000000e+00 0.0000000e+00 0.0000000e+00 
0.0000000e+00 0.0000000e+00 0.0000000e+00 
0.0000000e+00 0.0000000e+00 0.0000000e+00 
0.0000000e+00 0.0000000e+00 0.0000000e+00 
0.0000000e+00 0.0000000e+00 0.0000000e+00 
0.0000000e+00 0.0000000e+00 0.0000000e+00 
0.0000000e+00 0.0000000e+00 0.0000000e+00 
0.0000000e+00 0.0000000e+00 0.0000000e+00 
0.0000000e+00 0.0000000e+00 0.0000000e+00 
0.0000000e+00 0.0000000e+00 0.0000000e+00 
0.0000000e+00 0.0000000e+00 0.0000000e+00 
0.0000000e+00 0.0000000e+00 0.0000000e+00 
0.0000000e+00 0.0000000e+00 0.0000000e+00 
0.0000000e+00 0.0000000e+00 0.0000000e+00 
0.0000000e+00 0.0000000e+00 0.0000000e+00 
0.0000000e+00 0.0000000e+00 0.0000000e+00 
0.0000000e+00 0.0000000e+00 0.0000000e+00 
0.0000000e+00 0.0000000e+00 0.0000000e+00 
0.0000000e+00 0.0000000e+00 0.0000000e+00 
0.0000000e+00 0.0000000e+00 0.0000000e+00 
0.0000000e+00 0.0000000e+00 0.0000000e+00 
0.0000000e+00 0.0000000e+00 0.0000000e+00 
0.0000000e+00 0.0000000e+00 0.0000000e+00 
0.0000000e+00 0.0000000e+00 0.0000000e+00 
0.0000000e+00 0.0000000e+00 0.0000000e+00 
0.0000000e+00 0.0000000e+00 0.0000000e+00 
0.0000000e+00 0.0000000e+00 0.0000000e+00 
0.0000000e+00 0.0000000e+00 0.0000000e+00 
0.0000000e+00 0.0000000e+00 0.0000000e+00 
0.0000000e+00 0.0000000e+00 0.0000000e+00 
0.0000000e+00 0.0000000e+00 0.0000000e+00 
0.0000000e+00 0.0000000e+00 0.0000000e+00 
0.0000000e+00 0.0000000e+00 0.0000000e+00 
0.0000000e+00 0.0000000e+00 0.0000000e+00 
0.0000000e+00 0.0000000e+00 0.0000000e+00 
0.0000000e+00 0.0000000e+00 0.0000000e+00 
0.0000000e+00 0.0000000e+00 0.0000000e+00 
0.0000000e+00 0.0000000e+00 0.0000000e+00 
0.0000000e+00 0.0000000e+00 0.0000000e+00 
0.0000000e+00 0.0000000e+00 0.0000000e+00 
1.4849214e+00 1.3586603e+00 0.0000000e+00 
0.0000000e+00 0.0000000e+00 0.0000000e+00 
0.0000000e+00 0.0000000e+00 0.0000000e+00 
0.0000000e+00 0.0000000e+00 0.0000000e+00 
0.0000000e+00 0.0000000e+00 0.0000000e+00 
0.0000000e+00 0.0000000e+00 0.0000000e+00 
0.0000000e+00 0.0000000e+00 0.0000000e+00 
0.0000000e+00 0.0000000e+00 0.0000000e+00 
0.0000000e+00 0.0000000e+00 0.0000000e+00 
0.0000000e+00 0.0000000e+00 0.0000000e+00 
0.0000000e+00 0.0000000e+00 0.0000000e+00 
2.3499499e+00 -3.5754465e+00 0.0000000e+00 
0.0000000e+00 0.0000000e+00 0.0000000e+00 
0.0000000e+00 0.0000000e+00 0.0000000e+00 
0.0000000e+00 0.0000000e+00 0.0000000e+00 
0.0000000e+00 0.0000000e+00 0.0000000e+00 
0.0000000e+00 0.0000000e+00 0.0000000e+00 
0.0000000e+00 0.0000000e+00 0.0000000e+00 
0.0000000e+00 0.0000000e+00 0.0000000e+00 
0.0000000e+00 0.0000000e+00 0.0000000e+00 
0.0000000e+00 0.0000000e+00 0.0000000e+00 
0.0000000e+00 0.0000000e+00 0.0000000e+00 
0.0000000e+00 0.0000000e+00 0.0000000e+00 
0.0000000e+00 0.0000000e+00 0.0000000e+00 
0.0000000e+00 0.0000000e+00 0.0000000e+00 
0.0000000e+00 0.0000000e+00 0.0000000e+00 
0.0000000e+00 0.0000000e+00 0.0000000e+00 
0.0000000e+00 0.0000000e+00 0.0000000e+00 
0.0000000e+00 0.0000000e+00 0.0000000e+00 
0.0000000e+00 0.0000000e+00 0.0000000e+00 
0.0000000e+00 0.0000000e+00 0.0000000e+00 
0.0000000e+00 0.0000000e+00 0.0000000e+00 
0.0000000e+00 0.0000000e+00 0.0000000e+00 
0.0000000e+00 0.0000000e+00 0.0000000e+00 
0.0000000e+00 0.0000000e+00 0.0000000e+00 
0.0000000e+00 0.0000000e+00 0.0000000e+00 
0.0000000e+00 0.0000000e+00 0.0000000e+00 
0.0000000e+00 0.0000000e+00 0.0000000e+00 
0.0000000e+00 0.0000000e+00 0.0000000e+00 
0.0000000e+00 0.0000000e+00 0.0000000e+00 
-2.4325594e+00 -4.1895771e+00 0.0000000e+00 
0.0000000e+00 0.0000000e+00 0.0000000e+00 
0.0000000e+00 0.0000000e+00 0.0000000e+00 
0.0000000e+00 0.0000000e+00 0.0000000e+00 
0.0000000e+00 0.0000000e+00 0.0000000e+00 
0.0000000e+00 0.0000000e+00 0.0000000e+00 
0.0000000e+00 0.0000000e+00 0.0000000e+00 
0.0000000e+00 0.0000000e+00 0.0000000e+00 
0.0000000e+00 0.0000000e+00 0.0000000e+00 
0.0000000e+00 0.0000000e+00 0.0000000e+00 
0.0000000e+00 0.0000000e+00 0.0000000e+00 
0.0000000e+00 0.0000000e+00 0.0000000e+00 
0.0000000e+00 0.0000000e+00 0.0000000e+00 
0.0000000e+00 0.0000000e+00 0.0000000e+00 
0.0000000e+00 0.0000000e+00 0.0000000e+00 
0.0000000e+00 0.0000000e+00 0.0000000e+00 
0.0000000e+00 0.0000000e+00 0.0000000e+00 
0.0000000e+00 0.0000000e+00 0.0000000e+00 
0.0000000e+00 0.0000000e+00 0.0000000e+00 
2.1480481e+00 -5.6684641e+00 0.0000000e+00 
0.0000000e+00 0.0000000e+00 0.0000000e+00 
-2.3772305e+00 -4.9006348e+00 0.0000000e+00 
0.0000000e+00 0.0000000e+00 0.0000000e+00 
-7.5712495e-01 -7.3947981e+00 0.0000000e+00 
0.0000000e+00 0.0000000e+00 0.0000000e+00 
0.0000000e+00 0.0000000e+00 0.0000000e+00 
0.0000000e+00 0.0000000e+00 0.0000000e+00 
1.5849329e+00 -1.4624375e+00 0.0000000e+00 
0.0000000e+00 0.0000000e+00 0.0000000e+00 
0.0000000e+00 0.0000000e+00 0.0000000e+00 
0.0000000e+00 0.0000000e+00 0.0000000e+00 
0.0000000e+00 0.0000000e+00 0.0000000e+00 
0.0000000e+00 0.0000000e+00 0.0000000e+00 
0.0000000e+00 0.0000000e+00 0.0000000e+00 
0.0000000e+00 0.0000000e+00 0.0000000e+00 
0.0000000e+00 0.0000000e+00 0.0000000e+00 
0.0000000e+00 0.0000000e+00 0.0000000e+00 
0.0000000e+00 0.0000000e+00 0.0000000e+00 
0.0000000e+00 0.0000000e+00 0.0000000e+00 
0.0000000e+00 0.0000000e+00 0.0000000e+00 
0.0000000e+00 0.0000000e+00 0.0000000e+00 
0.0000000e+00 0.0000000e+00 0.0000000e+00 
0.0000000e+00 0.0000000e+00 0.0000000e+00 
0.0000000e+00 0.0000000e+00 0.0000000e+00 
0.0000000e+00 0.0000000e+00 0.0000000e+00 
0.0000000e+00 0.0000000e+00 0.0000000e+00 
0.0000000e+00 0.0000000e+00 0.0000000e+00 
0.0000000e+00 0.0000000e+00 0.0000000e+00 
0.0000000e+00 0.0000000e+00 0.0000000e+00 
0.0000000e+00 0.0000000e+00 0.0000000e+00 
0.0000000e+00 0.0000000e+00 0.0000000e+00 
0.0000000e+00 0.0000000e+00 0.0000000e+00 
0.0000000e+00 0.0000000e+00 0.0000000e+00 
0.0000000e+00 0.0000000e+00 0.0000000e+00 
0.0000000e+00 0.0000000e+00 0.0000000e+00 
0.0000000e+00 0.0000000e+00 0.0000000e+00 
0.0000000e+00 0.0000000e+00 0.0000000e+00 
0.0000000e+00 0.0000000e+00 0.0000000e+00 
0.0000000e+00 0.0000000e+00 0.0000000e+00 
0.0000000e+00 0.0000000e+00 0.0000000e+00 
0.0000000e+00 0.0000000e+00 0.0000000e+00 
0.0000000e+00 0.0000000e+00 0.0000000e+00 
0.0000000e+00 0.0000000e+00 0.0000000e+00 
0.0000000e+00 0.0000000e+00 0.0000000e+00 
0.0000000e+00 0.0000000e+00 0.0000000e+00 
0.0000000e+00 0.0000000e+00 0.0000000e+00 
2.1600708e+00 -2.7457958e+00 0.0000000e+00 
0.0000000e+00 0.0000000e+00 0.0000000e+00 
0.0000000e+00 0.0000000e+00 0.0000000e+00 
0.0000000e+00 0.0000000e+00 0.0000000e+00 
0.0000000e+00 0.0000000e+00 0.0000000e+00 
0.0000000e+00 0.0000000e+00 0.0000000e+00 
0.0000000e+00 0.0000000e+00 0.0000000e+00 
0.0000000e+00 0.0000000e+00 0.0000000e+00 
0.0000000e+00 0.0000000e+00 0.0000000e+00 
0.0000000e+00 0.0000000e+00 0.0000000e+00 
0.0000000e+00 0.0000000e+00 0.0000000e+00 
0.0000000e+00 0.0000000e+00 0.0000000e+00 
0.0000000e+00 0.0000000e+00 0.0000000e+00 
1.8852849e+00 -2.0246568e+00 0.0000000e+00 
0.0000000e+00 0.0000000e+00 0.0000000e+00 
0.0000000e+00 0.0000000e+00 0.0000000e+00 
0.0000000e+00 0.0000000e+00 0.0000000e+00 
0.0000000e+00 0.0000000e+00 0.0000000e+00 
0.0000000e+00 0.0000000e+00 0.0000000e+00 
0.0000000e+00 0.0000000e+00 0.0000000e+00 
0.0000000e+00 0.0000000e+00 0.0000000e+00 
0.0000000e+00 0.0000000e+00 0.0000000e+00 
0.0000000e+00 0.0000000e+00 0.0000000e+00 
0.0000000e+00 0.0000000e+00 0.0000000e+00 
0.0000000e+00 0.0000000e+00 0.0000000e+00 
0.0000000e+00 0.0000000e+00 0.0000000e+00 
0.0000000e+00 0.0000000e+00 0.0000000e+00 
-1.7473627e+00 -6.4089178e+00 0.0000000e+00 
0.0000000e+00 0.0000000e+00 0.0000000e+00 
0.0000000e+00 0.0000000e+00 0.0000000e+00 
0.0000000e+00 0.0000000e+00 0.0000000e+00 
0.0000000e+00 0.0000000e+00 0.0000000e+00 
0.0000000e+00 0.0000000e+00 0.0000000e+00 
0.0000000e+00 0.0000000e+00 0.0000000e+00 
0.0000000e+00 0.0000000e+00 0.0000000e+00 
0.0000000e+00 0.0000000e+00 0.0000000e+00 
0.0000000e+00 0.0000000e+00 0.0000000e+00 
0.0000000e+00 0.0000000e+00 0.0000000e+00 
0.0000000e+00 0.0000000e+00 0.0000000e+00 
0.0000000e+00 0.0000000e+00 0.0000000e+00 
0.0000000e+00 0.0000000e+00 0.0000000e+00 
0.0000000e+00 0.0000000e+00 0.0000000e+00 
0.0000000e+00 0.0000000e+00 0.0000000e+00 
0.0000000e+00 0.0000000e+00 0.0000000e+00 
0.0000000e+00 0.0000000e+00 0.0000000e+00 
0.0000000e+00 0.0000000e+00 0.0000000e+00 
0.0000000e+00 0.0000000e+00 0.0000000e+00 
0.0000000e+00 0.0000000e+00 0.0000000e+00 
-5.3899085e-01 7.4257339e+00 0.0000000e+00 
-1.0437784e+00 7.2078711e+00 0.0000000e+00 
-2.2564387e+00 5.4516456e+00 0.0000000e+00 
0.0000000e+00 0.0000000e+00 0.0000000e+00 
0.0000000e+00 0.0000000e+00 0.0000000e+00 
0.0000000e+00 0.0000000e+00 0.0000000e+00 
0.0000000e+00 0.0000000e+00 0.0000000e+00 
5.2205303e-01 -7.6050852e+00 0.0000000e+00 
0.0000000e+00 0.0000000e+00 0.0000000e+00 
0.0000000e+00 0.0000000e+00 0.0000000e+00 
0.0000000e+00 0.0000000e+00 0.0000000e+00 
0.0000000e+00 0.0000000e+00 0.0000000e+00 
1.8117243e+00 -6.3471863e+00 0.0000000e+00 
9.2323389e-01 -7.3795760e+00 0.0000000e+00 
0.0000000e+00 0.0000000e+00 0.0000000e+00 
0.0000000e+00 0.0000000e+00 0.0000000e+00 
0.0000000e+00 0.0000000e+00 0.0000000e+00 
0.0000000e+00 0.0000000e+00 0.0000000e+00 
0.0000000e+00 0.0000000e+00 0.0000000e+00 
0.0000000e+00 0.0000000e+00 0.0000000e+00 
0.0000000e+00 0.0000000e+00 0.0000000e+00 
0.0000000e+00 0.0000000e+00 0.0000000e+00 
0.0000000e+00 0.0000000e+00 0.0000000e+00 
0.0000000e+00 0.0000000e+00 0.0000000e+00 
0.0000000e+00 0.0000000e+00 0.0000000e+00 
1.3414560e+00 -6.9882820e+00 0.0000000e+00 
0.0000000e+00 0.0000000e+00 0.0000000e+00 
0.0000000e+00 0.0000000e+00 0.0000000e+00 
0.0000000e+00 0.0000000e+00 0.0000000e+00 
0.0000000e+00 0.0000000e+00 0.0000000e+00 
0.0000000e+00 0.0000000e+00 0.0000000e+00 
0.0000000e+00 0.0000000e+00 0.0000000e+00 
0.0000000e+00 0.0000000e+00 0.0000000e+00 
0.0000000e+00 0.0000000e+00 0.0000000e+00 
2.2791868e+00 5.6437892e+00 0.0000000e+00 
2.0300406e+00 6.2142950e+00 0.0000000e+00 
0.0000000e+00 0.0000000e+00 0.0000000e+00 
1.2342556e+00 7.0653362e+00 0.0000000e+00 
6.6234292e-01 7.3500155e+00 0.0000000e+00 
7.7626592e-02 7.4705825e+00 0.0000000e+00 
0.0000000e+00 0.0000000e+00 0.0000000e+00 
0.0000000e+00 0.0000000e+00 0.0000000e+00 
-1.5108737e+00 6.8161879e+00 0.0000000e+00 
-1.9060900e+00 6.2688973e+00 0.0000000e+00 
0.0000000e+00 0.0000000e+00 0.0000000e+00 
0.0000000e+00 0.0000000e+00 0.0000000e+00 
0.0000000e+00 0.0000000e+00 0.0000000e+00 
0.0000000e+00 0.0000000e+00 0.0000000e+00 
0.0000000e+00 0.0000000e+00 0.0000000e+00 
0.0000000e+00 0.0000000e+00 0.0000000e+00 
-2.3346809e+00 -3.3648242e+00 0.0000000e+00 
0.0000000e+00 0.0000000e+00 0.0000000e+00 
0.0000000e+00 0.0000000e+00 0.0000000e+00 
0.0000000e+00 0.0000000e+00 0.0000000e+00 
0.0000000e+00 0.0000000e+00 0.0000000e+00 
0.0000000e+00 0.0000000e+00 0.0000000e+00 
0.0000000e+00 0.0000000e+00 0.0000000e+00 
0.0000000e+00 0.0000000e+00 0.0000000e+00 
0.0000000e+00 0.0000000e+00 0.0000000e+00 
6.4732129e-01 2.2151644e-01 0.0000000e+00 
0.0000000e+00 0.0000000e+00 0.0000000e+00 
0.0000000e+00 0.0000000e+00 0.0000000e+00 
0.0000000e+00 0.0000000e+00 0.0000000e+00 
0.0000000e+00 0.0000000e+00 0.0000000e+00 
0.0000000e+00 0.0000000e+00 0.0000000e+00 
0.0000000e+00 0.0000000e+00 0.0000000e+00 
0.0000000e+00 0.0000000e+00 0.0000000e+00 
0.0000000e+00 0.0000000e+00 0.0000000e+00 
-5.9295946e-01 -8.5488021e-02 0.0000000e+00 
0.0000000e+00 0.0000000e+00 0.0000000e+00 
-1.7145754e+00 -1.7298326e+00 0.0000000e+00 
0.0000000e+00 0.0000000e+00 0.0000000e+00 
0.0000000e+00 0.0000000e+00 0.0000000e+00 
0.0000000e+00 0.0000000e+00 0.0000000e+00 
0.0000000e+00 0.0000000e+00 0.0000000e+00 
0.0000000e+00 0.0000000e+00 0.0000000e+00 
9.7016241e-01 -6.2832228e-01 0.0000000e+00 
0.0000000e+00 0.0000000e+00 0.0000000e+00 
0.0000000e+00 0.0000000e+00 0.0000000e+00 
0.0000000e+00 0.0000000e+00 0.0000000e+00 
0.0000000e+00 0.0000000e+00 0.0000000e+00 
-7.1354923e-01 -3.2574711e-01 0.0000000e+00 
0.0000000e+00 0.0000000e+00 0.0000000e+00 
0.0000000e+00 0.0000000e+00 0.0000000e+00 
1.2944255e+00 -1.0354409e+00 0.0000000e+00 
0.0000000e+00 0.0000000e+00 0.0000000e+00 
0.0000000e+00 0.0000000e+00 0.0000000e+00 
8.0749594e-01 4.5846657e-01 0.0000000e+00 
0.0000000e+00 0.0000000e+00 0.0000000e+00 
0.0000000e+00 0.0000000e+00 0.0000000e+00 
0.0000000e+00 0.0000000e+00 0.0000000e+00 
0.0000000e+00 0.0000000e+00 0.0000000e+00 
-1.6639922e+00 1.6508553e+00 0.0000000e+00 
1.8548770e+00 2.0162720e+00 0.0000000e+00 
0.0000000e+00 0.0000000e+00 0.0000000e+00 
-6.0465856e-01 1.2801901e-01 0.0000000e+00 
-1.2869024e+00 -6.9633959e+00 0.0000000e+00 
0.0000000e+00 0.0000000e+00 0.0000000e+00 
0.0000000e+00 0.0000000e+00 0.0000000e+00 
0.0000000e+00 0.0000000e+00 0.0000000e+00 
0.0000000e+00 0.0000000e+00 0.0000000e+00 
-2.0726053e+00 -2.4887986e+00 0.0000000e+00 
0.0000000e+00 0.0000000e+00 0.0000000e+00 
0.0000000e+00 0.0000000e+00 0.0000000e+00 
0.0000000e+00 0.0000000e+00 0.0000000e+00 
2.3393092e+00 -5.0021431e+00 0.0000000e+00 