# vtk DataFile Version 4.0
vtk output
ASCII
DATASET UNSTRUCTURED_GRID
POINTS 411 float
5.0000000e+01 5.0000000e+01 0.0000000e+00
5.0000000e+01 -5.0000000e+01 0.0000000e+00
-5.0000000e+01 5.0000000e+01 0.0000000e+00
-5.0000000e+01 -5.0000000e+01 0.0000000e+00
-5.0000000e+01 -4.5544067e+01 0.0000000e+00
-5.0000000e+01 -4.1289641e+01 0.0000000e+00
-5.0000000e+01 -3.7222115e+01 0.0000000e+00
-5.0000000e+01 -3.3340793e+01 0.0000000e+00
-5.0000000e+01 -2.9184201e+01 0.0000000e+00
-5.0000000e+01 -2.4472236e+01 0.0000000e+00
-5.0000000e+01 -2.0447224e+01 0.0000000e+00
-5.0000000e+01 -1.6444718e+01 0.0000000e+00
-5.0000000e+01 -1.2444652e+01 0.0000000e+00
-5.0000000e+01 -8.4507875e+00 0.0000000e+00
-5.0000000e+01 -4.5062826e+00 0.0000000e+00
-5.0000000e+01 -5.8072938e-01 0.0000000e+00
-5.0000000e+01 3.7930321e+00 0.0000000e+00
-5.0000000e+01 7.8526985e+00 0.0000000e+00
-5.0000000e+01 1.1653670e+01 0.0000000e+00
-5.0000000e+01 1.5961367e+01 0.0000000e+00
-5.0000000e+01 2.0400000e+01 0.0000000e+00
-5.0000000e+01 2.4400176e+01 0.0000000e+00
-5.0000000e+01 2.8406309e+01 0.0000000e+00
-5.0000000e+01 3.2480622e+01 0.0000000e+00
-5.0000000e+01 3.6831528e+01 0.0000000e+00
-5.0000000e+01 4.5946789e+01 0.0000000e+00
-4.6019937e+01 -5.0000000e+01 0.0000000e+00
-4.2112865e+01 -5.0000000e+01 0.0000000e+00
-3.8130102e+01 -5.0000000e+01 0.0000000e+00
-3.4132865e+01 -5.0000000e+01 0.0000000e+00
-2.9498326e+01 -5.0000000e+01 0.0000000e+00
-2.4807304e+01 -5.0000000e+01 0.0000000e+00
-1.9540932e+01 -5.0000000e+01 0.0000000e+00
-1.4521625e+01 -5.0000000e+01 0.0000000e+00
-9.5919762e+00 -5.0000000e+01 0.0000000e+00
-4.3929022e+00 -5.0000000e+01 0.0000000e+00
1.0354328e+00 -5.0000000e+01 0.0000000e+00
5.6321795e+00 -5.0000000e+01 0.0000000e+00
1.5258515e+01 -5.0000000e+01 0.0000000e+00
1.9441281e+01 -5.0000000e+01 0.0000000e+00
2.4093815e+01 -5.0000000e+01 0.0000000e+00
2.8657471e+01 -5.0000000e+01 0.0000000e+00
3.2922915e+01 -5.0000000e+01 0.0000000e+00
3.7003764e+01 -5.0000000e+01 0.0000000e+00
4.1022546e+01 -5.0000000e+01 0.0000000e+00
4.5952922e+01 -5.0000000e+01 0.0000000e+00
-4.5676207e+01 5.0000000e+01 0.0000000e+00
-4.1218179e+01 5.0000000e+01 0.0000000e+00
-3.6856712e+01 5.0000000e+01 0.0000000e+00
-3.2583644e+01 5.0000000e+01 0.0000000e+00
-2.8472980e+01 5.0000000e+01 0.0000000e+00
-2.3815823e+01 5.0000000e+01 0.0000000e+00
-1.9785306e+01 5.0000000e+01 0.0000000e+00
-1.5859473e+01 5.0000000e+01 0.0000000e+00
-1.1384415e+01 5.0000000e+01 0.0000000e+00
-7.5473893e+00 5.0000000e+01 0.0000000e+00
-3.3132956e+00 5.0000000e+01 0.0000000e+00
1.1538719e+00 5.0000000e+01 0.0000000e+00
5.8563507e+00 5.0000000e+01 0.0000000e+00
1.0916897e+01 5.0000000e+01 0.0000000e+00
1.6196306e+01 5.0000000e+01 0.0000000e+00
2.0474746e+01 5.0000000e+01 0.0000000e+00
2.4842895e+01 5.0000000e+01 0.0000000e+00
2.8939939e+01 5.0000000e+01 0.0000000e+00
3.3174254e+01 5.0000000e+01 0.0000000e+00
3.7274082e+01 5.0000000e+01 0.0000000e+00
4.1785136e+01 5.0000000e+01 0.0000000e+00
4.6023434e+01 5.0000000e+01 0.0000000e+00
5.0000000e+01 -4.2494006e+01 0.0000000e+00
5.0000000e+01 -3.8116819e+01 0.0000000e+00
5.0000000e+01 -3.4122304e+01 0.0000000e+00
5.0000000e+01 -3.0051423e+01 0.0000000e+00
5.0000000e+01 -2.6224873e+01 0.0000000e+00
5.0000000e+01 -2.2150891e+01 0.0000000e+00
5.0000000e+01 -1.8136198e+01 0.0000000e+00
5.0000000e+01 -1.4133757e+01 0.0000000e+00
5.0000000e+01 -1.0133392e+01 0.0000000e+00
5.0000000e+01 -6.1333411e+00 0.0000000e+00
5.0000000e+01 -2.1333343e+00 0.0000000e+00
5.0000000e+01 1.8666665e+00 0.0000000e+00
5.0000000e+01 5.8666667e+00 0.0000000e+00
5.0000000e+01 9.8666667e+00 0.0000000e+00
5.0000000e+01 1.3866375e+01 0.0000000e+00
5.0000000e+01 1.7863715e+01 0.0000000e+00
5.0000000e+01 2.1888646e+01 0.0000000e+00
5.0000000e+01 3.0354985e+01 0.0000000e+00
5.0000000e+01 3.4326295e+01 0.0000000e+00
5.0000000e+01 3.8337516e+01 0.0000000e+00
5.0000000e+01 4.2040477e+01 0.0000000e+00
5.0000000e+01 4.5939447e+01 0.0000000e+00
-3.9548233e+01 4.6367401e+01 0.0000000e+00
2.3109502e+01 -4.4295280e+01 0.0000000e+00
-2.1372505e+01 4.2229525e+01 0.0000000e+00
1.7589513e+01 4.5077849e+01 0.0000000e+00
2.6908518e+01 4.6299919e+01 0.0000000e+00
1.8561155e+01 3.9971023e+01 0.0000000e+00
-2.9489068e+01 3.8754302e+01 0.0000000e+00
-4.6065210e+01 -2.6994103e+01 0.0000000e+00
-4.5743019e+01 -2.2905321e+01 0.0000000e+00
-4.5365160e+01 -1.8720202e+01 0.0000000e+00
-4.5367727e+01 -1.4705247e+01 0.0000000e+00
-4.5805051e+01 -1.0593656e+01 0.0000000e+00
-3.8125104e+01 3.5297091e+01 0.0000000e+00
-4.6415656e+01 5.8967703e+00 0.0000000e+00
-4.6131961e+01 1.0559898e+01 0.0000000e+00
-4.6246678e+01 1.5525806e+01 0.0000000e+00
-4.5951693e+01 2.0573089e+01 0.0000000e+00
-4.5746206e+01 2.5058590e+01 0.0000000e+00
-4.5565225e+01 2.9399666e+01 0.0000000e+00
-4.5839225e+01 3.3543285e+01 0.0000000e+00
-4.3721625e+01 -4.6237958e+01 0.0000000e+00
-3.5585635e+01 -4.5889869e+01 0.0000000e+00
-2.6941090e+01 -4.5745256e+01 0.0000000e+00
-2.6704153e+01 -2.4492612e+01 0.0000000e+00
4.0842543e+00 -4.5439745e+01 0.0000000e+00
1.1084172e+01 -4.1402592e+01 0.0000000e+00
-4.5921344e+01 -3.1177448e+01 0.0000000e+00
3.4959755e+01 -4.5857509e+01 0.0000000e+00
4.3203624e+01 -4.6293951e+01 0.0000000e+00
-1.3871829e+01 4.4425914e+01 0.0000000e+00
-9.3731805e+00 4.5187017e+01 0.0000000e+00
2.7011626e+01 -3.4004703e+01 0.0000000e+00
1.2544993e+01 4.4829299e+01 0.0000000e+00
4.5705455e+01 -2.4149814e+01 0.0000000e+00
4.5764121e+01 -1.6041487e+01 0.0000000e+00
4.6009307e+01 -8.1262295e+00 0.0000000e+00
4.6354877e+01 1.9184085e-01 0.0000000e+00
4.6010042e+01 8.5089394e+00 0.0000000e+00
4.5737303e+01 1.6781371e+01 0.0000000e+00
4.5491040e+01 3.1870351e+01 0.0000000e+00
4.5771795e+01 4.0261575e+01 0.0000000e+00
4.2385475e+01 6.7017314e+00 0.0000000e+00
4.1801708e+01 1.0773428e+01 0.0000000e+00
4.0861447e+01 1.4973858e+01 0.0000000e+00
3.7815352e+01 1.8642791e+01 0.0000000e+00
3.5337659e+01 2.2214722e+01 0.0000000e+00
3.2487605e+01 2.5136967e+01 0.0000000e+00
2.9188349e+01 2.7811476e+01 0.0000000e+00
2.5756005e+01 3.0291457e+01 0.0000000e+00
2.2267879e+01 3.2700109e+01 0.0000000e+00
1.8499589e+01 3.4658509e+01 0.0000000e+00
1.4067259e+01 3.5853866e+01 0.0000000e+00
3.2833055e+00 4.0645540e+01 0.0000000e+00
-2.4487432e+00 3.8061730e+01 0.0000000e+00
-1.0365408e+01 4.0268585e+01 0.0000000e+00
-1.4434778e+01 3.8615729e+01 0.0000000e+00
-1.8192828e+01 3.6781635e+01 0.0000000e+00
-2.0799951e+01 3.3148536e+01 0.0000000e+00
-2.4772162e+01 3.1053670e+01 0.0000000e+00
-2.8418890e+01 2.8129004e+01 0.0000000e+00
-3.2371979e+01 2.5461506e+01 0.0000000e+00
-3.5144631e+01 2.2300627e+01 0.0000000e+00
-3.8079978e+01 1.9064942e+01 0.0000000e+00
-4.2390695e+01 1.7414948e+01 0.0000000e+00
-4.2004185e+01 1.2263758e+01 0.0000000e+00
-4.2597762e+01 7.5582907e+00 0.0000000e+00
-4.3009105e+01 3.2900487e+00 0.0000000e+00
-4.3602257e+01 -2.9919092e-01 0.0000000e+00
-4.2849856e+01 -3.8180694e+00 0.0000000e+00
-4.2179815e+01 -7.9465880e+00 0.0000000e+00
-4.1377358e+01 -1.2120254e+01 0.0000000e+00
-4.0388495e+01 -1.6384600e+01 0.0000000e+00
-3.7195282e+01 -1.9618844e+01 0.0000000e+00
-2.7795595e+01 -2.9046576e+01 0.0000000e+00
-2.4484955e+01 -3.1330041e+01 0.0000000e+00
-2.0889974e+01 -3.2989928e+01 0.0000000e+00
-1.7102929e+01 -3.4716636e+01 0.0000000e+00
-1.3055089e+01 -3.6592096e+01 0.0000000e+00
-8.5810765e+00 -4.0496373e+01 0.0000000e+00
8.2220767e+00 -3.7645919e+01 0.0000000e+00
1.6516709e+01 -3.5241710e+01 0.0000000e+00
2.0344041e+01 -3.3994259e+01 0.0000000e+00
2.3648245e+01 -3.1838690e+01 0.0000000e+00
2.7206477e+01 -2.9271998e+01 0.0000000e+00
3.0531846e+01 -2.7038270e+01 0.0000000e+00
3.3591998e+01 -2.4936864e+01 0.0000000e+00
3.5642708e+01 -2.1934174e+01 0.0000000e+00
3.7833618e+01 -1.8607134e+01 0.0000000e+00
4.0639841e+01 -1.4776653e+01 0.0000000e+00
4.1615981e+01 -1.0481782e+01 0.0000000e+00
4.2384924e+01 -6.3425673e+00 0.0000000e+00
4.2791711e+01 -2.0885203e+00 0.0000000e+00
-3.9851621e+01 -4.6127192e+01 0.0000000e+00
-3.1317800e+01 -4.5509217e+01 0.0000000e+00
-6.0282271e+00 -4.5169237e+01 0.0000000e+00
1.5372923e+01 -4.0623962e+01 0.0000000e+00
3.8951625e+01 -4.5974309e+01 0.0000000e+00
4.6217489e+01 -3.6141892e+01 0.0000000e+00
4.5783164e+01 -2.0231548e+01 0.0000000e+00
4.5600234e+01 -1.2248271e+01 0.0000000e+00
4.6272612e+01 -4.0446223e+00 0.0000000e+00
4.5647459e+01 1.2630720e+01 0.0000000e+00
4.5420125e+01 3.6092924e+01 0.0000000e+00
4.5241876e+01 -4.2692029e+01 0.0000000e+00
-4.1835957e+01 -3.7399382e+01 0.0000000e+00
-3.4230112e+01 -2.2114867e+01 0.0000000e+00
-4.1750514e+01 -2.5374746e+01 0.0000000e+00
-4.1530675e+01 -2.1073538e+01 0.0000000e+00
-4.1566931e+01 2.6613308e+01 0.0000000e+00
-4.0972809e+01 3.1197502e+01 0.0000000e+00
-4.2997860e+01 3.9637084e+01 0.0000000e+00
4.2020596e+01 -3.4463195e+01 0.0000000e+00
-3.3245167e+01 -4.1041526e+01 0.0000000e+00
-1.7601562e+01 -4.0193662e+01 0.0000000e+00
1.9806217e+01 -3.9754210e+01 0.0000000e+00
2.7078563e+01 -4.1398075e+01 0.0000000e+00
4.0997717e+01 -4.2289143e+01 0.0000000e+00
4.1974488e+01 -2.6674010e+01 0.0000000e+00
-4.1839848e+01 -4.1919321e+01 0.0000000e+00
-3.9417926e+01 4.2372511e+01 0.0000000e+00
-2.5781993e+01 4.1521449e+01 0.0000000e+00
-1.8208601e+01 4.5393251e+01 0.0000000e+00
3.4590232e+01 4.2269350e+01 0.0000000e+00
3.8332125e+01 4.1991985e+01 0.0000000e+00
4.1912728e+01 4.2100474e+01 0.0000000e+00
4.3212941e+01 -3.8785462e+01 0.0000000e+00
4.1285040e+01 3.8366440e+01 0.0000000e+00
-2.8147067e+01 -4.1374947e+01 0.0000000e+00
4.0135051e+01 2.2299360e+01 0.0000000e+00
3.7550136e+01 2.6233132e+01 0.0000000e+00
3.3702241e+01 2.9172064e+01 0.0000000e+00
3.0301858e+01 3.1989202e+01 0.0000000e+00
2.6528546e+01 3.4668845e+01 0.0000000e+00
2.3007766e+01 3.8361988e+01 0.0000000e+00
-2.1809223e+01 3.8201324e+01 0.0000000e+00
-2.5415512e+01 3.5969390e+01 0.0000000e+00
-2.9113291e+01 3.3384930e+01 0.0000000e+00
-3.2630705e+01 3.0356881e+01 0.0000000e+00
-3.6776818e+01 2.7483226e+01 0.0000000e+00
-2.8953859e+01 -3.3435581e+01 0.0000000e+00
[...]
POINT_DATA 411
FIELD FieldData 3
SHAPE_UPDATE 3 411  float
0.0000000e+00 0.0000000e+00 0.0000000e+00
0.0000000e+00 0.0000000e+00 0.0000000e+00
0.0000000e+00 0.0000000e+00 0.0000000e+00
0.0000000e+00 0.0000000e+00 0.0000000e+00
0.0000000e+00 0.0000000e+00 0.0000000e+00
0.0000000e+00 0.0000000e+00 0.0000000e+00
0.0000000e+00 0.0000000e+00 0.0000000e+00
0.0000000e+00 0.0000000e+00 0.0000000e+00
0.0000000e+00 0.0000000e+00 0.0000000e+00
0.0000000e+00 0.0000000e+00 0.0000000e+00
0.0000000e+00 0.0000000e+00 0.0000000e+00
0.0000000e+00 0.0000000e+00 0.0000000e+00
0.0000000e+00 0.0000000e+00 0.0000000e+00
0.0000000e+00 0.0000000e+00 0.0000000e+00
0.0000000e+00 0.0000000e+00 0.0000000e+00
0.0000000e+00 0.0000000e+00 0.0000000e+00
0.0000000e+00 0.0000000e+00 0.0000000e+00
0.0000000e+00 0.0000000e+00 0.0000000e+00
0.0000000e+00 0.0000000e+00 0.0000000e+00
0.0000000e+00 0.0000000e+00 0.0000000e+00
0.0000000e+00 0.0000000e+00 0.0000000e+00
0.0000000e+00 0.0000000e+00 0.0000000e+00
0.0000000e+00 0.0000000e+00 0.0000000e+00
0.0000000e+00 0.0000000e+00 0.0000000e+00
0.0000000e+00 0.0000000e+00 0.0000000e+00
0.0000000e+00 0.0000000e+00 0.0000000e+00
0.0000000e+00 0.0000000e+00 0.0000000e+00
0.0000000e+00 0.0000000e+00 0.0000000e+00
0.0000000e+00 0.0000000e+00 0.0000000e+00
0.0000000e+00 0.0000000e+00 0.0000000e+00
0.0000000e+00 0.0000000e+00 0.0000000e+00
0.0000000e+00 0.0000000e+00 0.0000000e+00
0.0000000e+00 0.0000000e+00 0.0000000e+00
0.0000000e+00 0.0000000e+00 0.0000000e+00
0.0000000e+00 0.0000000e+00 0.0000000e+00
0.0000000e+00 0.0000000e+00 0.0000000e+00
0.0000000e+00 0.0000000e+00 0.0000000e+00
0.0000000e+00 0.0000000e+00 0.0000000e+00
0.0000000e+00 0.0000000e+00 0.0000000e+00
0.0000000e+00 0.0000000e+00 0.0000000e+00
0.0000000e+00 0.0000000e+00 0.0000000e+00
0.0000000e+00 0.0000000e+00 0.0000000e+00
0.0000000e+00 0.0000000e+00 0.0000000e+00
0.0000000e+00 0.0000000e+00 0.0000000e+00
0.0000000e+00 0.0000000e+00 0.0000000e+00
0.0000000e+00 0.0000000e+00 0.0000000e+00
0.0000000e+00 0.0000000e+00 0.0000000e+00
0.0000000e+00 0.0000000e+00 0.0000000e+00
0.0000000e+00 0.0000000e+00 0.0000000e+00
0.0000000e+00 0.0000000e+00 0.0000000e+00
0.0000000e+00 0.0000000e+00 0.0000000e+00
0.0000000e+00 0.0000000e+00 0.0000000e+00
0.0000000e+00 0.0000000e+00 0.0000000e+00
0.0000000e+00 0.0000000e+00 0.0000000e+00
0.0000000e+00 0.0000000e+00 0.0000000e+00
0.0000000e+00 0.0000000e+00 0.0000000e+00
0.0000000e+00 0.0000000e+00 0.0000000e+00
0.0000000e+00 0.0000000e+00 0.0000000e+00
0.0000000e+00 0.0000000e+00 0.0000000e+00
0.0000000e+00 0.0000000e+00 0.0000000e+00
0.0000000e+00 0.0000000e+00 0.0000000e+00
0.0000000e+00 0.0000000e+00 0.0000000e+00
0.0000000e+00 0.0000000e+00 0.0000000e+00
0.0000000e+00 0.0000000e+00 0.0000000e+00
0.0000000e+00 0.0000000e+00 0.0000000e+00
0.0000000e+00 0.0000000e+00 0.0000000e+00
0.0000000e+00 0.0000000e+00 0.0000000e+00
0.0000000e+00 0.0000000e+00 0.0000000e+00
0.0000000e+00 0.0000000e+00 0.0000000e+00
0.0000000e+00 0.0000000e+00 0.0000000e+00
0.0000000e+00 0.0000000e+00 0.0000000e+00
0.0000000e+00 0.0000000e+00 0.0000000e+00
0.0000000e+00 0.0000000e+00 0.0000000e+00
0.0000000e+00 0.0000000e+00 0.0000000e+00
0.0000000e+00 0.0000000e+00 0.0000000e+00
0.0000000e+00 0.0000000e+00 0.0000000e+00
0.0000000e+00 0.0000000e+00 0.0000000e+00
0.0000000e+00 0.0000000e+00 0.0000000e+00
0.0000000e+00 0.0000000e+00 0.0000000e+00
0.0000000e+00 0.0000000e+00 0.0000000e+00
0.0000000e+00 0.0000000e+00 0.0000000e+00
0.0000000e+00 0.0000000e+00 0.0000000e+00
0.0000000e+00 0.0000000e+00 0.0000000e+00
0.0000000e+00 0.0000000e+00 0.0000000e+00
0.0000000e+00 0.0000000e+00 0.0000000e+00
0.0000000e+00 0.0000000e+00 0.0000000e+00
0.0000000e+00 0.0000000e+00 0.0000000e+00
0.0000000e+00 0.0000000e+00 0.0000000e+00
0.0000000e+00 0.0000000e+00 0.0000000e+00
0.0000000e+00 0.0000000e+00 0.0000000e+00
0.0000000e+00 0.0000000e+00 0.0000000e+00
0.0000000e+00 0.0000000e+00 0.0000000e+00
0.0000000e+00 0.0000000e+00 0.0000000e+00
0.0000000e+00 0.0000000e+00 0.0000000e+00
0.0000000e+00 0.0000000e+00 0.0000000e+00
0.0000000e+00 0.0000000e+00 0.0000000e+00
0.0000000e+00 0.0000000e+00 0.0000000e+00
0.0000000e+00 0.0000000e+00 0.0000000e+00
0.0000000e+00 0.0000000e+00 0.0000000e+00
0.0000000e+00 0.0000000e+00 0.0000000e+00
0.0000000e+00 0.0000000e+00 0.0000000e+00
0.0000000e+00 0.0000000e+00 0.0000000e+00
0.0000000e+00 0.0000000e+00 0.0000000e+00
0.0000000e+00 0.0000000e+00 0.0000000e+00
0.0000000e+00 0.0000000e+00 0.0000000e+00
0.0000000e+00 0.0000000e+00 0.0000000e+00
0.0000000e+00 0.0000000e+00 0.0000000e+00
0.0000000e+00 0.0000000e+00 0.0000000e+00
0.0000000e+00 0.0000000e+00 0.0000000e+00
0.0000000e+00 0.0000000e+00 0.0000000e+00
0.0000000e+00 0.0000000e+00 0.0000000e+00
0.0000000e+00 0.0000000e+00 0.0000000e+00
0.0000000e+00 0.0000000e+00 0.0000000e+00
2.3958209e+00 3.9796374e+00 0.0000000e+00
0.0000000e+00 0.0000000e+00 0.0000000e+00
0.0000000e+00 0.0000000e+00 0.0000000e+00
0.0000000e+00 0.0000000e+00 0.0000000e+00
0.0000000e+00 0.0000000e+00 0.0000000e+00
0.0000000e+00 0.0000000e+00 0.0000000e+00
0.0000000e+00 0.0000000e+00 0.0000000e+00
0.0000000e+00 0.0000000e+00 0.0000000e+00
0.0000000e+00 0.0000000e+00 0.0000000e+00
0.0000000e+00 0.0000000e+00 0.0000000e+00
0.0000000e+00 0.0000000e+00 0.0000000e+00
0.0000000e+00 0.0000000e+00 0.0000000e+00
0.0000000e+00 0.0000000e+00 0.0000000e+00
0.0000000e+00 0.0000000e+00 0.0000000e+00
0.0000000e+00 0.0000000e+00 0.0000000e+00
0.0000000e+00 0.0000000e+00 0.0000000e+00
0.0000000e+00 0.0000000e+00 0.0000000e+00
0.0000000e+00 0.0000000e+00 0.0000000e+00
0.0000000e+00 0.0000000e+00 0.0000000e+00
0.0000000e+00 0.0000000e+00 0.0000000e+00
0.0000000e+00 0.0000000e+00 0.0000000e+00
0.0000000e+00 0.0000000e+00 0.0000000e+00
0.0000000e+00 0.0000000e+00 0.0000000e+00
0.0000000e+00 0.0000000e+00 0.0000000e+00
0.0000000e+00 0.0000000e+00 0.0000000e+00
0.0000000e+00 0.0000000e+00 0.0000000e+00
0.0000000e+00 0.0000000e+00 0.0000000e+00
0.0000000e+00 0.0000000e+00 0.0000000e+00
0.0000000e+00 0.0000000e+00 0.0000000e+00
0.0000000e+00 0.0000000e+00 0.0000000e+00
0.0000000e+00 0.0000000e+00 0.0000000e+00
0.0000000e+00 0.0000000e+00 0.0000000e+00
0.0000000e+00 0.0000000e+00 0.0000000e+00
0.0000000e+00 0.0000000e+00 0.0000000e+00
0.0000000e+00 0.0000000e+00 0.0000000e+00
0.0000000e+00 0.0000000e+00 0.0000000e+00
0.0000000e+00 0.0000000e+00 0.0000000e+00
0.0000000e+00 0.0000000e+00 0.0000000e+00
0.0000000e+00 0.0000000e+00 0.0000000e+00
0.0000000e+00 0.0000000e+00 0.0000000e+00
0.0000000e+00 0.0000000e+00 0.0000000e+00
0.0000000e+00 0.0000000e+00 0.0000000e+00
0.0000000e+00 0.0000000e+00 0.0000000e+00
0.0000000e+00 0.0000000e+00 0.0000000e+00
0.0000000e+00 0.0000000e+00 0.0000000e+00
0.0000000e+00 0.0000000e+00 0.0000000e+00
0.0000000e+00 0.0000000e+00 0.0000000e+00
0.0000000e+00 0.0000000e+00 0.0000000e+00
0.0000000e+00 0.0000000e+00 0.0000000e+00
0.0000000e+00 0.0000000e+00 0.0000000e+00
0.0000000e+00 0.0000000e+00 0.0000000e+00
0.0000000e+00 0.0000000e+00 0.0000000e+00
0.0000000e+00 0.0000000e+00 0.0000000e+00
0.0000000e+00 0.0000000e+00 0.0000000e+00
0.0000000e+00 0.0000000e+00 0.0000000e+00
0.0000000e+00 0.0000000e+00 0.0000000e+00
0.0000000e+00 0.0000000e+00 0.0000000e+00
0.0000000e+00 0.0000000e+00 0.0000000e+00
0.0000000e+00 0.0000000e+00 0.0000000e+00
0.0000000e+00 0.0000000e+00 0.0000000e+00
0.0000000e+00 0.0000000e+00 0.0000000e+00
0.0000000e+00 0.0000000e+00 0.0000000e+00
0.0000000e+00 0.0000000e+00 0.0000000e+00
0.0000000e+00 0.0000000e+00 0.0000000e+00
0.0000000e+00 0.0000000e+00 0.0000000e+00
0.0000000e+00 0.0000000e+00 0.0000000e+00
0.0000000e+00 0.0000000e+00 0.0000000e+00
0.0000000e+00 0.0000000e+00 0.0000000e+00
0.0000000e+00 0.0000000e+00 0.0000000e+00
0.0000000e+00 0.0000000e+00 0.0000000e+00
0.0000000e+00 0.0000000e+00 0.0000000e+00
0.0000000e+00 0.0000000e+00 0.0000000e+00
0.0000000e+00 0.0000000e+00 0.0000000e+00
0.0000000e+00 0.0000000e+00 0.0000000e+00
0.0000000e+00 0.0000000e+00 0.0000000e+00
0.0000000e+00 0.0000000e+00 0.0000000e+00
0.0000000e+00 0.0000000e+00 0.0000000e+00
0.0000000e+00 0.0000000e+00 0.0000000e+00
0.0000000e+00 0.0000000e+00 0.0000000e+00
0.0000000e+00 0.0000000e+00 0.0000000e+00
0.0000000e+00 0.0000000e+00 0.0000000e+00
0.0000000e+00 0.0000000e+00 0.0000000e+00
0.0000000e+00 0.0000000e+00 0.0000000e+00
0.0000000e+00 0.0000000e+00 0.0000000e+00
0.0000000e+00 0.0000000e+00 0.0000000e+00
0.0000000e+00 0.0000000e+00 0.0000000e+00
0.0000000e+00 0.0000000e+00 0.0000000e+00
0.0000000e+00 0.0000000e+00 0.0000000e+00
0.0000000e+00 0.0000000e+00 0.0000000e+00
0.0000000e+00 0.0000000e+00 0.0000000e+00
0.0000000e+00 0.0000000e+00 0.0000000e+00
0.0000000e+00 0.0000000e+00 0.0000000e+00
0.0000000e+00 0.0000000e+00 0.0000000e+00
0.0000000e+00 0.0000000e+00 0.0000000e+00
0.0000000e+00 0.0000000e+00 0.0000000e+00
0.0000000e+00 0.0000000e+00 0.0000000e+00
0.0000000e+00 0.0000000e+00 0.0000000e+00
0.0000000e+00 0.0000000e+00 0.0000000e+00
0.0000000e+00 0.0000000e+00 0.0000000e+00
0.0000000e+00 0.0000000e+00 0.0000000e+00
0.0000000e+00 0.0000000e+00 0.0000000e+00
0.0000000e+00 0.0000000e+00 0.0000000e+00
0.0000000e+00 0.0000000e+00 0.0000000e+00
0.0000000e+00 0.0000000e+00 0.0000000e+00
0.0000000e+00 0.0000000e+00 0.0000000e+00
0.0000000e+00 0.0000000e+00 0.0000000e+00
0.0000000e+00 0.0000000e+00 0.0000000e+00
0.0000000e+00 0.0000000e+00 0.0000000e+00
0.0000000e+00 0.0000000e+00 0.0000000e+00
0.0000000e+00 0.0000000e+00 0.0000000e+00
0.0000000e+00 0.0000000e+00 0.0000000e+00
0.0000000e+00 0.0000000e+00 0.0000000e+00
0.0000000e+00 0.0000000e+00 0.0000000e+00
0.0000000e+00 0.0000000e+00 0.0000000e+00
0.0000000e+00 0.0000000e+00 0.0000000e+00
0.0000000e+00 0.0000000e+00 0.0000000e+00
0.0000000e+00 0.0000000e+00 0.0000000e+00
0.0000000e+00 0.0000000e+00 0.0000000e+00
0.0000000e+00 0.0000000e+00 0.0000000e+00
0.0000000e+00 0.0000000e+00 0.0000000e+00
0.0000000e+00 0.0000000e+00 0.0000000e+00
0.0000000e+00 0.0000000e+00 0.0000000e+00
0.0000000e+00 0.0000000e+00 0.0000000e+00
0.0000000e+00 0.0000000e+00 0.0000000e+00
0.0000000e+00 0.0000000e+00 0.0000000e+00
0.0000000e+00 0.0000000e+00 0.0000000e+00
0.0000000e+00 0.0000000e+00 0.0000000e+00
0.0000000e+00 0.0000000e+00 0.0000000e+00
0.0000000e+00 0.0000000e+00 0.0000000e+00
0.0000000e+00 0.0000000e+00 0.0000000e+00
0.0000000e+00 0.0000000e+00 0.0000000e+00
0.0000000e+00 0.0000000e+00 0.0000000e+00
0.0000000e+00 0.0000000e+00 0.0000000e+00
0.0000000e+00 0.0000000e+00 0.0000000e+00
0.0000000e+00 0.0000000e+00 0.0000000e+00
0.0000000e+00 0.0000000e+00 0.0000000e+00
0.0000000e+00 0.0000000e+00 0.0000000e+00
0.0000000e+00 0.0000000e+00 0.0000000e+00
0.0000000e+00 0.0000000e+00 0.0000000e+00
0.0000000e+00 0.0000000e+00 0.0000000e+00
0.0000000e+00 0.0000000e+00 0.0000000e+00
0.0000000e+00 0.0000000e+00 0.0000000e+00
0.0000000e+00 0.0000000e+00 0.0000000e+00
0.0000000e+00 0.0000000e+00 0.0000000e+00
0.0000000e+00 0.0000000e+00 0.0000000e+00
0.0000000e+00 0.0000000e+00 0.0000000e+00
0.0000000e+00 0.0000000e+00 0.0000000e+00
0.0000000e+00 0.0000000e+00 0.0000000e+00
0.0000000e+00 0.0000000e+00 0.0000000e+00
0.0000000e+00 0.0000000e+00 0.0000000e+00
0.0000000e+00 0.0000000e+00 0.0000000e+00
0.0000000e+00 0.0000000e+00 0.0000000e+00
0.0000000e+00 0.0000000e+00 0.0000000e+00
0.0000000e+00 0.0000000e+00 0.0000000e+00
0.0000000e+00 0.0000000e+00 0.0000000e+00
0.0000000e+00 0.0000000e+00 0.0000000e+00
0.0000000e+00 0.0000000e+00 0.0000000e+00
-1.4209605e+00 -6.9092641e+00 0.0000000e+00
0.0000000e+00 0.0000000e+00 0.0000000e+00
0.0000000e+00 0.0000000e+00 0.0000000e+00
0.0000000e+00 0.0000000e+00 0.0000000e+00
0.0000000e+00 0.0000000e+00 0.0000000e+00
0.0000000e+00 0.0000000e+00 0.0000000e+00
0.0000000e+00 0.0000000e+00 0.0000000e+00
0.0000000e+00 0.0000000e+00 0.0000000e+00
0.0000000e+00 0.0000000e+00 0.0000000e+00
0.0000000e+00 0.0000000e+00 0.0000000e+00
0.0000000e+00 0.0000000e+00 0.0000000e+00
0.0000000e+00 0.0000000e+00 0.0000000e+00
0.0000000e+00 0.0000000e+00 0.0000000e+00
0.0000000e+00 0.0000000e+00 0.0000000e+00
0.0000000e+00 0.0000000e+00 0.0000000e+00
0.0000000e+00 0.0000000e+00 0.0000000e+00
0.0000000e+00 0.0000000e+00 0.0000000e+00
0.0000000e+00 0.0000000e+00 0.0000000e+00
0.0000000e+00 0.0000000e+00 0.0000000e+00
0.0000000e+00 0.0000000e+00 0.0000000e+00
0.0000000e+00 0.0000000e+00 0.0000000e+00
2.3988253e+00 4.7293771e+00 0.0000000e+00
2.0361138e+00 6.1438344e+00 0.0000000e+00
1.7319123e+00 6.6842026e+00 0.0000000e+00
1.3069386e+00 7.1892401e+00 0.0000000e+00
9.4615381e-01 7.4774282e+00 0.0000000e+00
5.5198249e-01 7.6621266e+00 0.0000000e+00
-7.2354236e-01 7.5048031e+00 0.0000000e+00
-1.1881987e+00 7.1685710e+00 0.0000000e+00
1.8550165e-01 -7.4894087e+00 0.0000000e+00
-9.2118997e-01 -7.2779717e+00 0.0000000e+00
0.0000000e+00 0.0000000e+00 0.0000000e+00
0.0000000e+00 0.0000000e+00 0.0000000e+00
0.0000000e+00 0.0000000e+00 0.0000000e+00
0.0000000e+00 0.0000000e+00 0.0000000e+00
0.0000000e+00 0.0000000e+00 0.0000000e+00
0.0000000e+00 0.0000000e+00 0.0000000e+00
0.0000000e+00 0.0000000e+00 0.0000000e+00
0.0000000e+00 0.0000000e+00 0.0000000e+00
0.0000000e+00 0.0000000e+00 0.0000000e+00
0.0000000e+00 0.0000000e+00 0.0000000e+00
0.0000000e+00 0.0000000e+00 0.0000000e+00
1.7678077e+00 -6.6043472e+00 0.0000000e+00
8.1342554e-01 -7.3248010e+00 0.0000000e+00
-3.6727283e-01 -7.4738810e+00 0.0000000e+00
-1.8444375e+00 -6.3982906e+00 0.0000000e+00
-2.3988126e+00 -5.0133408e+00 0.0000000e+00
-2.4556809e+00 -4.3752325e+00 0.0000000e+00
-2.3999448e+00 -3.6198271e+00 0.0000000e+00
2.0555366e+00 -6.1438114e+00 0.0000000e+00
2.4157908e+00 -4.8158453e+00 0.0000000e+00
-2.2168788e+00 -2.8438573e+00 0.0000000e+00
0.0000000e+00 0.0000000e+00 0.0000000e+00
0.0000000e+00 0.0000000e+00 0.0000000e+00
-2.1968502e+00 -5.7223335e+00 0.0000000e+00
1.3446890e+00 -7.0197814e+00 0.0000000e+00
0.0000000e+00 0.0000000e+00 0.0000000e+00
0.0000000e+00 0.0000000e+00 0.0000000e+00
0.0000000e+00 0.0000000e+00 0.0000000e+00
0.0000000e+00 0.0000000e+00 0.0000000e+00
0.0000000e+00 0.0000000e+00 0.0000000e+00
-2.8511703e-01 7.6813231e+00 0.0000000e+00
0.0000000e+00 0.0000000e+00 0.0000000e+00
-1.6043766e+00 6.7167359e+00 0.0000000e+00
-2.0097285e+00 6.0567567e+00 0.0000000e+00
0.0000000e+00 0.0000000e+00 0.0000000e+00
0.0000000e+00 0.0000000e+00 0.0000000e+00
0.0000000e+00 0.0000000e+00 0.0000000e+00
0.0000000e+00 0.0000000e+00 0.0000000e+00
0.0000000e+00 0.0000000e+00 0.0000000e+00
6.8699596e-01 -2.6315983e-01 0.0000000e+00
0.0000000e+00 0.0000000e+00 0.0000000e+00
0.0000000e+00 0.0000000e+00 0.0000000e+00
1.5283871e+00 -1.3679348e+00 0.0000000e+00
0.0000000e+00 0.0000000e+00 0.0000000e+00
0.0000000e+00 0.0000000e+00 0.0000000e+00
0.0000000e+00 0.0000000e+00 0.0000000e+00
0.0000000e+00 0.0000000e+00 0.0000000e+00
0.0000000e+00 0.0000000e+00 0.0000000e+00
0.0000000e+00 0.0000000e+00 0.0000000e+00
0.0000000e+00 0.0000000e+00 0.0000000e+00
0.0000000e+00 0.0000000e+00 0.0000000e+00
0.0000000e+00 0.0000000e+00 0.0000000e+00
0.0000000e+00 0.0000000e+00 0.0000000e+00
0.0000000e+00 0.0000000e+00 0.0000000e+00
1.2646471e-01 7.7340409e+00 0.0000000e+00
0.0000000e+00 0.0000000e+00 0.0000000e+00
1.8381205e+00 -1.8920779e+00 0.0000000e+00
7.2278343e-01 3.0675115e-01 0.0000000e+00
9.6742450e-01 6.3448711e-01 0.0000000e+00
1.2571980e+00 1.0070016e+00 0.0000000e+00
1.9597471e+00 2.2238487e+00 0.0000000e+00
2.2389138e+00 3.0520897e+00 0.0000000e+00
-1.9953377e+00 2.2863906e+00 0.0000000e+00
-1.6451845e+00 1.6021522e+00 0.0000000e+00
-1.2399043e+00 1.0007201e+00 0.0000000e+00
-9.0534279e-01 5.7189220e-01 0.0000000e+00
-6.9599956e-01 2.8488340e-01 0.0000000e+00
2.0971613e+00 -2.4774562e+00 0.0000000e+00
2.4270926e+00 -4.0366962e+00 0.0000000e+00
0.0000000e+00 0.0000000e+00 0.0000000e+00
2.2925943e+00 -5.5122324e+00 0.0000000e+00
2.3145683e+00 -3.2229318e+00 0.0000000e+00
1.2091469e+00 -9.3067876e-01 0.0000000e+00
0.0000000e+00 0.0000000e+00 0.0000000e+00
0.0000000e+00 0.0000000e+00 0.0000000e+00
2.2759435e+00 5.4767551e+00 0.0000000e+00
0.0000000e+00 0.0000000e+00 0.0000000e+00
0.0000000e+00 0.0000000e+00 0.0000000e+00
0.0000000e+00 0.0000000e+00 0.0000000e+00
0.0000000e+00 0.0000000e+00 0.0000000e+00
0.0000000e+00 0.0000000e+00 0.0000000e+00
0.0000000e+00 0.0000000e+00 0.0000000e+00
0.0000000e+00 0.0000000e+00 0.0000000e+00
0.0000000e+00 0.0000000e+00 0.0000000e+00
0.0000000e+00 0.0000000e+00 0.0000000e+00
0.0000000e+00 0.0000000e+00 0.0000000e+00
0.0000000e+00 0.0000000e+00 0.0000000e+00
0.0000000e+00 0.0000000e+00 0.0000000e+00
-2.2878462e+00 5.3237678e+00 0.0000000e+00
-2.4155426e+00 4.6062596e+00 0.0000000e+00
-2.4111521e+00 3.8577746e+00 0.0000000e+00
-2.2746153e+00 3.0912108e+00 0.0000000e+00
0.0000000e+00 0.0000000e+00 0.0000000e+00
0.0000000e+00 0.0000000e+00 0.0000000e+00
0.0000000e+00 0.0000000e+00 0.0000000e+00
-1.9232792e+00 -2.0936609e+00 0.0000000e+00
-1.5960728e+00 -1.4921350e+00 0.0000000e+00
-1.2464148e+00 -9.8534500e-01 0.0000000e+00
-6.9545465e-01 -2.6984839e-01 0.0000000e+00
-9.3716240e-01 -5.9842706e-01 0.0000000e+00
-6.0728842e-01 3.7216550e-02 0.0000000e+00
0.0000000e+00 0.0000000e+00 0.0000000e+00
0.0000000e+00 0.0000000e+00 0.0000000e+00
8.9182456e-01 -5.4037314e-01 0.0000000e+00
6.1106264e-01 -2.0150092e-03 0.0000000e+00
1.6437827e+00 1.5903597e+00 0.0000000e+00
0.0000000e+00 0.0000000e+00 0.0000000e+00
0.0000000e+00 0.0000000e+00 0.0000000e+00
0.0000000e+00 0.0000000e+00 0.0000000e+00
0.0000000e+00 0.0000000e+00 0.0000000e+00
SHAPE_CHANGE 3 411  float
0.0000000e+00 0.0000000e+00 0.0000000e+00
0.0000000e+00 0.0000000e+00 0.0000000e+00
0.0000000e+00 0.0000000e+00 0.0000000e+00
0.0000000e+00 0.0000000e+00 0.0000000e+00
0.0000000e+00 0.0000000e+00 0.0000000e+00
0.0000000e+00 0.0000000e+00 0.0000000e+00
0.0000000e+00 0.0000000e+00 0.0000000e+00
0.0000000e+00 0.0000000e+00 0.0000000e+00
0.0000000e+00 0.0000000e+00 0.0000000e+00
0.0000000e+00 0.0000000e+00 0.0000000e+00
0.0000000e+00 0.0000000e+00 0.0000000e+00
0.0000000e+00 0.0000000e+00 0.0000000e+00
0.0000000e+00 0.0000000e+00 0.0000000e+00
0.0000000e+00 0.0000000e+00 0.0000000e+00
0.0000000e+00 0.0000000e+00 0.0000000e+00
0.0000000e+00 0.0000000e+00 0.0000000e+00
0.0000000e+00 0.0000000e+00 0.0000000e+00
0.0000000e+00 0.0000000e+00 0.0000000e+00
0.0000000e+00 0.0000000e+00 0.0000000e+00
0.0000000e+00 0.0000000e+00 0.0000000e+00
0.0000000e+00 0.0000000e+00 0.0000000e+00
0.0000000e+00 0.0000000e+00 0.0000000e+00
0.0000000e+00 0.0000000e+00 0.0000000e+00
0.0000000e+00 0.0000000e+00 0.0000000e+00
0.0000000e+00 0.0000000e+00 0.0000000e+00
0.0000000e+00 0.0000000e+00 0.0000000e+00
0.0000000e+00 0.0000000e+00 0.0000000e+00
0.0000000e+00 0.0000000e+00 0.0000000e+00
0.0000000e+00 0.0000000e+00 0.0000000e+00
0.0000000e+00 0.0000000e+00 0.0000000e+00
0.0000000e+00 0.0000000e+00 0.0000000e+00
0.0000000e+00 0.0000000e+00 0.0000000e+00
0.0000000e+00 0.0000000e+00 0.0000000e+00
0.0000000e+00 0.0000000e+00 0.0000000e+00
0.0000000e+00 0.0000000e+00 0.0000000e+00
0.0000000e+00 0.0000000e+00 0.0000000e+00
0.0000000e+00 0.0000000e+00 0.0000000e+00
0.0000000e+00 0.0000000e+00 0.0000000e+00
0.0000000e+00 0.0000000e+00 0.0000000e+00
0.0000000e+00 0.0000000e+00 0.0000000e+00
0.0000000e+00 0.0000000e+00 0.0000000e+00
0.0000000e+00 0.0000000e+00 0.0000000e+00
0.0000000e+00 0.0000000e+00 0.0000000e+00
0.0000000e+00 0.0000000e+00 0.0000000e+00
0.0000000e+00 0.0000000e+00 0.0000000e+00
0.0000000e+00 0.0000000e+00 0.0000000e+00
0.0000000e+00 0.0000000e+00 0.0000000e+00
0.0000000e+00 0.0000000e+00 0.0000000e+00
0.0000000e+00 0.0000000e+00 0.0000000e+00
0.0000000e+00 0.0000000e+00 0.0000000e+00
0.0000000e+00 0.0000000e+00 0.0000000e+00
0.0000000e+00 0.0000000e+00 0.0000000e+00
0.0000000e+00 0.0000000e+00 0.0000000e+00
0.0000000e+00 0.0000000e+00 0.0000000e+00
0.0000000e+00 0.0000000e+00 0.0000000e+00
0.0000000e+00 0.0000000e+00 0.0000000e+00
0.0000000e+00 0.0000000e+00 0.0000000e+00
0.0000000e+00 0.0000000e+00 0.0000000e+00
0.0000000e+00 0.0000000e+00 0.0000000e+00
0.0000000e+00 0.0000000e+00 0.0000000e+00
0.0000000e+00 0.0000000e+00 0.0000000e+00