# vtk DataFile Version 4.0
vtk output
ASCII
DATASET UNSTRUCTURED_GRID
POINTS 422 float
3.9797459e+01 -1.7347235e-18 0.0000000e+00 
5.0000000e+01 5.0000000e+01 0.0000000e+00 
5.0000000e+01 -5.0000000e+01 0.0000000e+00 
-5.0000000e+01 5.0000000e+01 0.0000000e+00 
-5.0000000e+01 -5.0000000e+01 0.0000000e+00 
-5.0000000e+01 -4.6000000e+01 0.0000000e+00 
-5.0000000e+01 -4.2000000e+01 0.0000000e+00 
-5.0000000e+01 -3.8000000e+01 0.0000000e+00 
-5.0000000e+01 -3.4000000e+01 0.0000000e+00 
-5.0000000e+01 -3.0000000e+01 0.0000000e+00 
-5.0000000e+01 -2.6000000e+01 0.0000000e+00 
-5.0000000e+01 -2.2000000e+01 0.0000000e+00 
-5.0000000e+01 -1.8000000e+01 0.0000000e+00 
-5.0000000e+01 -1.4000000e+01 0.0000000e+00 
-5.0000000e+01 -1.0000000e+01 0.0000000e+00 
-5.0000000e+01 -6.0000000e+00 0.0000000e+00 
-5.0000000e+01 -2.0000000e+00 0.0000000e+00 
-5.0000000e+01 2.0000000e+00 0.0000000e+00 
-5.0000000e+01 6.0000000e+00 0.0000000e+00 
-5.0000000e+01 1.0000000e+01 0.0000000e+00 
-5.0000000e+01 1.4000000e+01 0.0000000e+00 
-5.0000000e+01 1.8000000e+01 0.0000000e+00 
-5.0000000e+01 2.2000000e+01 0.0000000e+00 
-5.0000000e+01 2.6000000e+01 0.0000000e+00 
-5.0000000e+01 3.0000000e+01 0.0000000e+00 
-5.0000000e+01 3.4000000e+01 0.0000000e+00 
-5.0000000e+01 3.8000000e+01 0.0000000e+00 
-5.0000000e+01 4.2000000e+01 0.0000000e+00 
-5.0000000e+01 4.6000000e+01 0.0000000e+00 
-4.6000000e+01 -5.0000000e+01 0.0000000e+00 
-4.2000000e+01 -5.0000000e+01 0.0000000e+00 
-3.8000000e+01 -5.0000000e+01 0.0000000e+00 
-3.4000000e+01 -5.0000000e+01 0.0000000e+00 
-3.0000000e+01 -5.0000000e+01 0.0000000e+00 
-2.6000000e+01 -5.0000000e+01 0.0000000e+00 
-2.2000000e+01 -5.0000000e+01 0.0000000e+00 
-1.8000000e+01 -5.0000000e+01 0.0000000e+00 
-1.4000000e+01 -5.0000000e+01 0.0000000e+00 
-1.0000000e+01 -5.0000000e+01 0.0000000e+00 
-6.0000000e+00 -5.0000000e+01 0.0000000e+00 
-2.0000000e+00 -5.0000000e+01 0.0000000e+00 
2.0000000e+00 -5.0000000e+01 0.0000000e+00 
6.0000000e+00 -5.0000000e+01 0.0000000e+00 
1.0000000e+01 -5.0000000e+01 0.0000000e+00 
1.4000000e+01 -5.0000000e+01 0.0000000e+00 
1.8000000e+01 -5.0000000e+01 0.0000000e+00 
2.2000000e+01 -5.0000000e+01 0.0000000e+00 
2.6000000e+01 -5.0000000e+01 0.0000000e+00 
3.0000000e+01 -5.0000000e+01 0.0000000e+00 
3.4000000e+01 -5.0000000e+01 0.0000000e+00 
3.8000000e+01 -5.0000000e+01 0.0000000e+00 
4.2000000e+01 -5.0000000e+01 0.0000000e+00 
4.6000000e+01 -5.0000000e+01 0.0000000e+00 
-4.6000000e+01 5.0000000e+01 0.0000000e+00 
-4.2000000e+01 5.0000000e+01 0.0000000e+00 
-3.8000000e+01 5.0000000e+01 0.0000000e+00 
-3.4000000e+01 5.0000000e+01 0.0000000e+00 
-3.0000000e+01 5.0000000e+01 0.0000000e+00 
-2.6000000e+01 5.0000000e+01 0.0000000e+00 
-2.2000000e+01 5.0000000e+01 0.0000000e+00 
-1.8000000e+01 5.0000000e+01 0.0000000e+00 
-1.4000000e+01 5.0000000e+01 0.0000000e+00 
-1.0000000e+01 5.0000000e+01 0.0000000e+00 
-6.0000000e+00 5.0000000e+01 0.0000000e+00 
-2.0000000e+00 5.0000000e+01 0.0000000e+00 
2.0000000e+00 5.0000000e+01 0.0000000e+00 
6.0000000e+00 5.0000000e+01 0.0000000e+00 
1.0000000e+01 5.0000000e+01 0.0000000e+00 
1.4000000e+01 5.0000000e+01 0.0000000e+00 
1.8000000e+01 5.0000000e+01 0.0000000e+00 
2.2000000e+01 5.0000000e+01 0.0000000e+00 
2.6000000e+01 5.0000000e+01 0.0000000e+00 
3.0000000e+01 5.0000000e+01 0.0000000e+00 
3.4000000e+01 5.0000000e+01 0.0000000e+00 
3.8000000e+01 5.0000000e+01 0.0000000e+00 
4.2000000e+01 5.0000000e+01 0.0000000e+00 
4.6000000e+01 5.0000000e+01 0.0000000e+00 
5.0000000e+01 -4.6000000e+01 0.0000000e+00 
5.0000000e+01 -4.2000000e+01 0.0000000e+00 
5.0000000e+01 -3.8000000e+01 0.0000000e+00 
5.0000000e+01 -3.4000000e+01 0.0000000e+00 
5.0000000e+01 -3.0000000e+01 0.0000000e+00 
5.0000000e+01 -2.6000000e+01 0.0000000e+00 
5.0000000e+01 -2.2000000e+01 0.0000000e+00 
5.0000000e+01 -1.8000000e+01 0.0000000e+00 
5.0000000e+01 -1.4000000e+01 0.0000000e+00 
5.0000000e+01 -1.0000000e+01 0.0000000e+00 
5.0000000e+01 -6.0000000e+00 0.0000000e+00 
5.0000000e+01 -2.0000000e+00 0.0000000e+00 
5.0000000e+01 2.0000000e+00 0.0000000e+00 
5.0000000e+01 6.0000000e+00 0.0000000e+00 
5.0000000e+01 1.0000000e+01 0.0000000e+00 
5.0000000e+01 1.4000000e+01 0.0000000e+00 
5.0000000e+01 1.8000000e+01 0.0000000e+00 
5.0000000e+01 2.2000000e+01 0.0000000e+00 
5.0000000e+01 2.6000000e+01 0.0000000e+00 
5.0000000e+01 3.0000000e+01 0.0000000e+00 
5.0000000e+01 3.4000000e+01 0.0000000e+00 
5.0000000e+01 3.8000000e+01 0.0000000e+00 
5.0000000e+01 4.2000000e+01 0.0000000e+00 
5.0000000e+01 4.6000000e+01 0.0000000e+00 
3.9567697e+01 3.9190121e+00 0.0000000e+00 
3.8883539e+01 7.7802116e+00 0.0000000e+00 
3.7760061e+01 1.1528036e+01 0.0000000e+00 
3.6221405e+01 1.5111255e+01 0.0000000e+00 
3.4299383e+01 1.8484716e+01 0.0000000e+00 
3.2031695e+01 2.1610649e+01 0.0000000e+00 
2.9459903e+01 2.4459412e+01 0.0000000e+00 
2.6627325e+01 2.7009663e+01 0.0000000e+00 
2.3577026e+01 2.9247949e+01 0.0000000e+00 
2.0350068e+01 3.1167789e+01 0.0000000e+00 
1.6984146e+01 3.2768330e+01 0.0000000e+00 
1.3512710e+01 3.4052744e+01 0.0000000e+00 
9.9646400e+00 3.5026494e+01 0.0000000e+00 
6.3644505e+00 3.5695665e+01 0.0000000e+00 
2.7330074e+00 3.6065500e+01 0.0000000e+00 
-9.1135668e-01 3.6139293e+01 0.0000000e+00 
-4.5514459e+00 3.5917737e+01 0.0000000e+00 
-8.1696819e+00 3.5398789e+01 0.0000000e+00 
-1.1746626e+01 3.4578068e+01 0.0000000e+00 
-1.5259705e+01 3.3449745e+01 0.0000000e+00 
-1.8682281e+01 3.2007848e+01 0.0000000e+00 
-2.1983182e+01 3.0247842e+01 0.0000000e+00 
-2.5126759e+01 2.8168356e+01 0.0000000e+00 
-2.8073493e+01 2.5772869e+01 0.0000000e+00 
-3.0781122e+01 2.3071203e+01 0.0000000e+00 
-3.3206215e+01 2.0080672e+01 0.0000000e+00 
-3.5306073e+01 1.6826750e+01 0.0000000e+00 
-3.7040803e+01 1.3343203e+01 0.0000000e+00 
-3.8375405e+01 9.6716218e+00 0.0000000e+00 
-3.9281701e+01 5.8603894e+00 0.0000000e+00 
-3.9739938e+01 1.9631462e+00 0.0000000e+00 
-3.9739938e+01 -1.9631462e+00 0.0000000e+00 
-3.9281701e+01 -5.8603894e+00 0.0000000e+00 
-3.8375405e+01 -9.6716218e+00 0.0000000e+00 
-3.7040803e+01 -1.3343203e+01 0.0000000e+00 
-3.5306073e+01 -1.6826750e+01 0.0000000e+00 
-3.3206215e+01 -2.0080672e+01 0.0000000e+00 
-3.0781122e+01 -2.3071203e+01 0.0000000e+00 
-2.8073493e+01 -2.5772869e+01 0.0000000e+00 
-2.5126759e+01 -2.8168356e+01 0.0000000e+00 
-2.1983182e+01 -3.0247842e+01 0.0000000e+00 
-1.8682281e+01 -3.2007848e+01 0.0000000e+00 
-1.5259705e+01 -3.3449745e+01 0.0000000e+00 
-1.1746626e+01 -3.4578068e+01 0.0000000e+00 
-8.1696819e+00 -3.5398789e+01 0.0000000e+00 
-4.5514459e+00 -3.5917737e+01 0.0000000e+00 
-9.1135668e-01 -3.6139293e+01 0.0000000e+00 
2.7330074e+00 -3.6065500e+01 0.0000000e+00 
6.3644505e+00 -3.5695665e+01 0.0000000e+00 
9.9646400e+00 -3.5026494e+01 0.0000000e+00 
1.3512710e+01 -3.4052744e+01 0.0000000e+00 
1.6984146e+01 -3.2768330e+01 0.0000000e+00 
2.0350068e+01 -3.1167789e+01 0.0000000e+00 
2.3577026e+01 -2.9247949e+01 0.0000000e+00 
2.6627325e+01 -2.7009663e+01 0.0000000e+00 
2.9459903e+01 -2.4459412e+01 0.0000000e+00 
3.2031695e+01 -2.1610649e+01 0.0000000e+00 
3.4299383e+01 -1.8484716e+01 0.0000000e+00 
3.6221405e+01 -1.5111255e+01 0.0000000e+00 
3.7760061e+01 -1.1528036e+01 0.0000000e+00 
3.8883539e+01 -7.7802116e+00 0.0000000e+00 
3.9567697e+01 -3.9190121e+00 0.0000000e+00 
-4.6514757e+01 -4.3348801e+01 0.0000000e+00 
-4.6274386e+01 -3.9803831e+01 0.0000000e+00 
-4.6425379e+01 -3.5946277e+01 0.0000000e+00 
-4.6544959e+01 -3.2005809e+01 0.0000000e+00 
-4.6433552e+01 -2.8029770e+01 0.0000000e+00 
-4.6120563e+01 -2.4010770e+01 0.0000000e+00 
-4.5735529e+01 -1.9864063e+01 0.0000000e+00 
-4.5656308e+01 -1.5668899e+01 0.0000000e+00 
-4.5991243e+01 -1.1513600e+01 0.0000000e+00 
-4.6315401e+01 -7.4366499e+00 0.0000000e+00 
-4.6607852e+01 -3.4621701e+00 0.0000000e+00 
-4.7262906e+01 2.7726027e-04 0.0000000e+00 
-4.6608255e+01 3.4625552e+00 0.0000000e+00 
-4.6316930e+01 7.4311575e+00 0.0000000e+00 
-4.5994648e+01 1.1495903e+01 0.0000000e+00 
-4.5661788e+01 1.5620126e+01 0.0000000e+00 
-4.5725305e+01 1.9769812e+01 0.0000000e+00 
-4.5966760e+01 2.3906699e+01 0.0000000e+00 
-4.6087032e+01 2.7911601e+01 0.0000000e+00 
-4.6245466e+01 3.1811341e+01 0.0000000e+00 
-4.6430212e+01 3.5677922e+01 0.0000000e+00 
-4.6566506e+01 3.9453807e+01 0.0000000e+00 
-4.6743564e+01 4.3092773e+01 0.0000000e+00 
-4.6534730e+01 4.6669877e+01 0.0000000e+00 
-4.4359698e+01 -4.6401834e+01 0.0000000e+00 
-3.5866901e+01 -4.6150998e+01 0.0000000e+00 
-2.7589600e+01 -4.6059577e+01 0.0000000e+00 
-1.9626900e+01 -4.5942667e+01 0.0000000e+00 
-1.1567779e+01 -4.6164426e+01 0.0000000e+00 
-4.1462855e+00 -4.5353918e+01 0.0000000e+00 
3.4838093e+00 -4.5292065e+01 0.0000000e+00 
1.1357728e+01 -4.4783328e+01 0.0000000e+00 
1.9893010e+01 -4.6418326e+01 0.0000000e+00 
2.7494503e+01 -4.6295091e+01 0.0000000e+00 
3.5474111e+01 -4.6146599e+01 0.0000000e+00 
4.3409943e+01 -4.6230379e+01 0.0000000e+00 
4.7000374e+01 -4.6060062e+01 0.0000000e+00 
-4.2703129e+01 4.6875025e+01 0.0000000e+00 
-3.8777687e+01 4.6646443e+01 0.0000000e+00 
-3.4775199e+01 4.6780798e+01 0.0000000e+00 
-3.0658886e+01 4.6728567e+01 0.0000000e+00 
-2.6676128e+01 4.6555280e+01 0.0000000e+00 
-2.3305591e+01 4.7097289e+01 0.0000000e+00 
-1.4694913e+01 4.4998448e+01 0.0000000e+00 
-1.0567287e+01 4.5085225e+01 0.0000000e+00 
-6.6503471e+00 4.5236769e+01 0.0000000e+00 
-2.8183801e+00 4.5335396e+01 0.0000000e+00 
9.8192774e-01 4.5396798e+01 0.0000000e+00 
4.7214812e+00 4.5594371e+01 0.0000000e+00 
8.1506881e+00 4.6243226e+01 0.0000000e+00 
1.1918981e+01 4.4725754e+01 0.0000000e+00 
1.6293836e+01 4.5617326e+01 0.0000000e+00 
2.0256756e+01 4.5992419e+01 0.0000000e+00 
2.4242075e+01 4.6405123e+01 0.0000000e+00 
2.8169396e+01 4.6448559e+01 0.0000000e+00 
3.2203719e+01 4.6481366e+01 0.0000000e+00 
3.6291303e+01 4.6381707e+01 0.0000000e+00 
4.0393848e+01 4.6337242e+01 0.0000000e+00 
4.4571532e+01 4.6536599e+01 0.0000000e+00 
4.6884359e+01 -3.9446864e+01 0.0000000e+00 
4.6631596e+01 -3.2124774e+01 0.0000000e+00 
4.6020544e+01 -2.4282473e+01 0.0000000e+00 
[...]
POINT_DATA 422
FIELD FieldData 7
SHAPE_UPDATE 3 422  float
-2.4971059e-01 0.0000000e+00 0.0000000e+00 
0.0000000e+00 0.0000000e+00 0.0000000e+00 
0.0000000e+00 0.0000000e+00 0.0000000e+00 
0.0000000e+00 0.0000000e+00 0.0000000e+00 
0.0000000e+00 0.0000000e+00 0.0000000e+00 
0.0000000e+00 0.0000000e+00 0.0000000e+00 
0.0000000e+00 0.0000000e+00 0.0000000e+00 
0.0000000e+00 0.0000000e+00 0.0000000e+00 
0.0000000e+00 0.0000000e+00 0.0000000e+00 
0.0000000e+00 0.0000000e+00 0.0000000e+00 
0.0000000e+00 0.0000000e+00 0.0000000e+00 
0.0000000e+00 0.0000000e+00 0.0000000e+00 
0.0000000e+00 0.0000000e+00 0.0000000e+00 
0.0000000e+00 0.0000000e+00 0.0000000e+00 
0.0000000e+00 0.0000000e+00 0.0000000e+00 
0.0000000e+00 0.0000000e+00 0.0000000e+00 
0.0000000e+00 0.0000000e+00 0.0000000e+00 
0.0000000e+00 0.0000000e+00 0.0000000e+00 
0.0000000e+00 0.0000000e+00 0.0000000e+00 
0.0000000e+00 0.0000000e+00 0.0000000e+00 
0.0000000e+00 0.0000000e+00 0.0000000e+00 
0.0000000e+00 0.0000000e+00 0.0000000e+00 
0.0000000e+00 0.0000000e+00 0.0000000e+00 
0.0000000e+00 0.0000000e+00 0.0000000e+00 
0.0000000e+00 0.0000000e+00 0.0000000e+00 
0.0000000e+00 0.0000000e+00 0.0000000e+00 
0.0000000e+00 0.0000000e+00 0.0000000e+00 
0.0000000e+00 0.0000000e+00 0.0000000e+00 
0.0000000e+00 0.0000000e+00 0.0000000e+00 
0.0000000e+00 0.0000000e+00 0.0000000e+00 
0.0000000e+00 0.0000000e+00 0.0000000e+00 
0.0000000e+00 0.0000000e+00 0.0000000e+00 
0.0000000e+00 0.0000000e+00 0.0000000e+00 
0.0000000e+00 0.0000000e+00 0.0000000e+00 
0.0000000e+00 0.0000000e+00 0.0000000e+00 
0.0000000e+00 0.0000000e+00 0.0000000e+00 
0.0000000e+00 0.0000000e+00 0.0000000e+00 
0.0000000e+00 0.0000000e+00 0.0000000e+00 
0.0000000e+00 0.0000000e+00 0.0000000e+00 
0.0000000e+00 0.0000000e+00 0.0000000e+00 
0.0000000e+00 0.0000000e+00 0.0000000e+00 
0.0000000e+00 0.0000000e+00 0.0000000e+00 
0.0000000e+00 0.0000000e+00 0.0000000e+00 
0.0000000e+00 0.0000000e+00 0.0000000e+00 
0.0000000e+00 0.0000000e+00 0.0000000e+00 
0.0000000e+00 0.0000000e+00 0.0000000e+00 
0.0000000e+00 0.0000000e+00 0.0000000e+00 
0.0000000e+00 0.0000000e+00 0.0000000e+00 
0.0000000e+00 0.0000000e+00 0.0000000e+00 
0.0000000e+00 0.0000000e+00 0.0000000e+00 
0.0000000e+00 0.0000000e+00 0.0000000e+00 
0.0000000e+00 0.0000000e+00 0.0000000e+00 
0.0000000e+00 0.0000000e+00 0.0000000e+00 
0.0000000e+00 0.0000000e+00 0.0000000e+00 
0.0000000e+00 0.0000000e+00 0.0000000e+00 
0.0000000e+00 0.0000000e+00 0.0000000e+00 
0.0000000e+00 0.0000000e+00 0.0000000e+00 
0.0000000e+00 0.0000000e+00 0.0000000e+00 
0.0000000e+00 0.0000000e+00 0.0000000e+00 
0.0000000e+00 0.0000000e+00 0.0000000e+00 
0.0000000e+00 0.0000000e+00 0.0000000e+00 
0.0000000e+00 0.0000000e+00 0.0000000e+00 
0.0000000e+00 0.0000000e+00 0.0000000e+00 
0.0000000e+00 0.0000000e+00 0.0000000e+00 
0.0000000e+00 0.0000000e+00 0.0000000e+00 
0.0000000e+00 0.0000000e+00 0.0000000e+00 
0.0000000e+00 0.0000000e+00 0.0000000e+00 
0.0000000e+00 0.0000000e+00 0.0000000e+00 
0.0000000e+00 0.0000000e+00 0.0000000e+00 
0.0000000e+00 0.0000000e+00 0.0000000e+00 
0.0000000e+00 0.0000000e+00 0.0000000e+00 
0.0000000e+00 0.0000000e+00 0.0000000e+00 
0.0000000e+00 0.0000000e+00 0.0000000e+00 
0.0000000e+00 0.0000000e+00 0.0000000e+00 
0.0000000e+00 0.0000000e+00 0.0000000e+00 
0.0000000e+00 0.0000000e+00 0.0000000e+00 
0.0000000e+00 0.0000000e+00 0.0000000e+00 
0.0000000e+00 0.0000000e+00 0.0000000e+00 
0.0000000e+00 0.0000000e+00 0.0000000e+00 
0.0000000e+00 0.0000000e+00 0.0000000e+00 
0.0000000e+00 0.0000000e+00 0.0000000e+00 
0.0000000e+00 0.0000000e+00 0.0000000e+00 
0.0000000e+00 0.0000000e+00 0.0000000e+00 
0.0000000e+00 0.0000000e+00 0.0000000e+00 
0.0000000e+00 0.0000000e+00 0.0000000e+00 
0.0000000e+00 0.0000000e+00 0.0000000e+00 
0.0000000e+00 0.0000000e+00 0.0000000e+00 
0.0000000e+00 0.0000000e+00 0.0000000e+00 
0.0000000e+00 0.0000000e+00 0.0000000e+00 
0.0000000e+00 0.0000000e+00 0.0000000e+00 
0.0000000e+00 0.0000000e+00 0.0000000e+00 
0.0000000e+00 0.0000000e+00 0.0000000e+00 
0.0000000e+00 0.0000000e+00 0.0000000e+00 
0.0000000e+00 0.0000000e+00 0.0000000e+00 
0.0000000e+00 0.0000000e+00 0.0000000e+00 
0.0000000e+00 0.0000000e+00 0.0000000e+00 
0.0000000e+00 0.0000000e+00 0.0000000e+00 
0.0000000e+00 0.0000000e+00 0.0000000e+00 
0.0000000e+00 0.0000000e+00 0.0000000e+00 
0.0000000e+00 0.0000000e+00 0.0000000e+00 
0.0000000e+00 0.0000000e+00 0.0000000e+00 
-2.8442646e-01 -8.9607638e-02 0.0000000e+00 
-3.8375980e-01 -2.0170645e-01 0.0000000e+00 
-5.3405686e-01 -3.5522292e-01 0.0000000e+00 
-7.1501866e-01 -5.6263763e-01 0.0000000e+00 
-9.0282925e-01 -8.2830156e-01 0.0000000e+00 
-1.0735753e+00 -1.1481749e+00 0.0000000e+00 
-1.2063104e+00 -1.5108893e+00 0.0000000e+00 
-1.2852700e+00 -1.8997666e+00 0.0000000e+00 
-1.3009929e+00 -2.2952791e+00 0.0000000e+00 
-1.2503780e+00 -2.6774388e+00 0.0000000e+00 
-1.1359172e+00 -3.0277239e+00 0.0000000e+00 
-9.6445946e-01 -3.3303420e+00 0.0000000e+00 
-7.4586048e-01 -3.5728240e+00 0.0000000e+00 
-4.9179336e-01 -3.7460871e+00 0.0000000e+00 
-2.1487056e-01 -3.8441831e+00 0.0000000e+00 
7.1897389e-02 -3.8639564e+00 0.0000000e+00 
3.5538083e-01 -3.8047899e+00 0.0000000e+00 
6.2248628e-01 -3.6685491e+00 0.0000000e+00 
8.6035366e-01 -3.4597451e+00 0.0000000e+00 
1.0567522e+00 -3.1858514e+00 0.0000000e+00 
1.2007863e+00 -2.8576267e+00 0.0000000e+00 
1.2839399e+00 -2.4892383e+00 0.0000000e+00 
1.3013732e+00 -2.0979574e+00 0.0000000e+00 
1.2532567e+00 -1.7032407e+00 0.0000000e+00 
1.1458196e+00 -1.3251229e+00 0.0000000e+00 
9.9174501e-01 -9.8202096e-01 0.0000000e+00 
8.0959925e-01 -6.8825092e-01 0.0000000e+00 
6.2215105e-01 -4.5172042e-01 0.0000000e+00 
4.5368437e-01 -2.7232989e-01 0.0000000e+00 
3.2668187e-01 -1.4154058e-01 0.0000000e+00 
2.5846638e-01 -4.3354581e-02 0.0000000e+00 
2.5846638e-01 4.3354581e-02 0.0000000e+00 
3.2668187e-01 1.4154058e-01 0.0000000e+00 
4.5368437e-01 2.7232989e-01 0.0000000e+00 
6.2215105e-01 4.5172042e-01 0.0000000e+00 
8.0959925e-01 6.8825092e-01 0.0000000e+00 
9.9174501e-01 9.8202096e-01 0.0000000e+00 
1.1458196e+00 1.3251229e+00 0.0000000e+00 
1.2532567e+00 1.7032407e+00 0.0000000e+00 
1.3013732e+00 2.0979574e+00 0.0000000e+00 
1.2839399e+00 2.4892383e+00 0.0000000e+00 
1.2007863e+00 2.8576267e+00 0.0000000e+00 
1.0567522e+00 3.1858514e+00 0.0000000e+00 
8.6035366e-01 3.4597451e+00 0.0000000e+00 
6.2248628e-01 3.6685491e+00 0.0000000e+00 
3.5538083e-01 3.8047899e+00 0.0000000e+00 
7.1897389e-02 3.8639564e+00 0.0000000e+00 
-2.1487056e-01 3.8441831e+00 0.0000000e+00 
-4.9179336e-01 3.7460871e+00 0.0000000e+00 
-7.4586048e-01 3.5728240e+00 0.0000000e+00 
-9.6445946e-01 3.3303420e+00 0.0000000e+00 
-1.1359172e+00 3.0277239e+00 0.0000000e+00 
-1.2503780e+00 2.6774388e+00 0.0000000e+00 
-1.3009929e+00 2.2952791e+00 0.0000000e+00 
-1.2852700e+00 1.8997666e+00 0.0000000e+00 
-1.2063104e+00 1.5108893e+00 0.0000000e+00 
-1.0735753e+00 1.1481749e+00 0.0000000e+00 
-9.0282925e-01 8.2830156e-01 0.0000000e+00 
-7.1501866e-01 5.6263763e-01 0.0000000e+00 
-5.3405686e-01 3.5522292e-01 0.0000000e+00 
-3.8375980e-01 2.0170645e-01 0.0000000e+00 
-2.8442646e-01 8.9607638e-02 0.0000000e+00 
0.0000000e+00 0.0000000e+00 0.0000000e+00 
0.0000000e+00 0.0000000e+00 0.0000000e+00 
0.0000000e+00 0.0000000e+00 0.0000000e+00 
0.0000000e+00 0.0000000e+00 0.0000000e+00 
0.0000000e+00 0.0000000e+00 0.0000000e+00 
0.0000000e+00 0.0000000e+00 0.0000000e+00 
0.0000000e+00 0.0000000e+00 0.0000000e+00 
0.0000000e+00 0.0000000e+00 0.0000000e+00 
0.0000000e+00 0.0000000e+00 0.0000000e+00 
0.0000000e+00 0.0000000e+00 0.0000000e+00 
0.0000000e+00 0.0000000e+00 0.0000000e+00 
0.0000000e+00 0.0000000e+00 0.0000000e+00 
0.0000000e+00 0.0000000e+00 0.0000000e+00 
0.0000000e+00 0.0000000e+00 0.0000000e+00 
0.0000000e+00 0.0000000e+00 0.0000000e+00 
0.0000000e+00 0.0000000e+00 0.0000000e+00 
0.0000000e+00 0.0000000e+00 0.0000000e+00 
0.0000000e+00 0.0000000e+00 0.0000000e+00 
0.0000000e+00 0.0000000e+00 0.0000000e+00 
0.0000000e+00 0.0000000e+00 0.0000000e+00 
0.0000000e+00 0.0000000e+00 0.0000000e+00 
0.0000000e+00 0.0000000e+00 0.0000000e+00 
0.0000000e+00 0.0000000e+00 0.0000000e+00 
0.0000000e+00 0.0000000e+00 0.0000000e+00 
0.0000000e+00 0.0000000e+00 0.0000000e+00 
0.0000000e+00 0.0000000e+00 0.0000000e+00 
0.0000000e+00 0.0000000e+00 0.0000000e+00 
0.0000000e+00 0.0000000e+00 0.0000000e+00 
0.0000000e+00 0.0000000e+00 0.0000000e+00 
0.0000000e+00 0.0000000e+00 0.0000000e+00 
0.0000000e+00 0.0000000e+00 0.0000000e+00 
0.0000000e+00 0.0000000e+00 0.0000000e+00 
0.0000000e+00 0.0000000e+00 0.0000000e+00 
0.0000000e+00 0.0000000e+00 0.0000000e+00 
0.0000000e+00 0.0000000e+00 0.0000000e+00 
0.0000000e+00 0.0000000e+00 0.0000000e+00 
0.0000000e+00 0.0000000e+00 0.0000000e+00 
0.0000000e+00 0.0000000e+00 0.0000000e+00 
0.0000000e+00 0.0000000e+00 0.0000000e+00 
0.0000000e+00 0.0000000e+00 0.0000000e+00 
0.0000000e+00 0.0000000e+00 0.0000000e+00 
0.0000000e+00 0.0000000e+00 0.0000000e+00 
0.0000000e+00 0.0000000e+00 0.0000000e+00 
0.0000000e+00 0.0000000e+00 0.0000000e+00 
0.0000000e+00 0.0000000e+00 0.0000000e+00 
0.0000000e+00 0.0000000e+00 0.0000000e+00 
0.0000000e+00 0.0000000e+00 0.0000000e+00 
0.0000000e+00 0.0000000e+00 0.0000000e+00 
0.0000000e+00 0.0000000e+00 0.0000000e+00 
0.0000000e+00 0.0000000e+00 0.0000000e+00 
0.0000000e+00 0.0000000e+00 0.0000000e+00 
0.0000000e+00 0.0000000e+00 0.0000000e+00 
0.0000000e+00 0.0000000e+00 0.0000000e+00 
0.0000000e+00 0.0000000e+00 0.0000000e+00 
0.0000000e+00 0.0000000e+00 0.0000000e+00 
0.0000000e+00 0.0000000e+00 0.0000000e+00 
0.0000000e+00 0.0000000e+00 0.0000000e+00 
0.0000000e+00 0.0000000e+00 0.0000000e+00 
0.0000000e+00 0.0000000e+00 0.0000000e+00 
0.0000000e+00 0.0000000e+00 0.0000000e+00 
0.0000000e+00 0.0000000e+00 0.0000000e+00 
0.0000000e+00 0.0000000e+00 0.0000000e+00 
0.0000000e+00 0.0000000e+00 0.0000000e+00 
0.0000000e+00 0.0000000e+00 0.0000000e+00 
0.0000000e+00 0.0000000e+00 0.0000000e+00 
0.0000000e+00 0.0000000e+00 0.0000000e+00 
0.0000000e+00 0.0000000e+00 0.0000000e+00 
0.0000000e+00 0.0000000e+00 0.0000000e+00 
0.0000000e+00 0.0000000e+00 0.0000000e+00 
0.0000000e+00 0.0000000e+00 0.0000000e+00 
0.0000000e+00 0.0000000e+00 0.0000000e+00 
0.0000000e+00 0.0000000e+00 0.0000000e+00 
0.0000000e+00 0.0000000e+00 0.0000000e+00 
0.0000000e+00 0.0000000e+00 0.0000000e+00 
0.0000000e+00 0.0000000e+00 0.0000000e+00 
0.0000000e+00 0.0000000e+00 0.0000000e+00 
0.0000000e+00 0.0000000e+00 0.0000000e+00 
0.0000000e+00 0.0000000e+00 0.0000000e+00 
0.0000000e+00 0.0000000e+00 0.0000000e+00 
0.0000000e+00 0.0000000e+00 0.0000000e+00 
0.0000000e+00 0.0000000e+00 0.0000000e+00 
0.0000000e+00 0.0000000e+00 0.0000000e+00 
0.0000000e+00 0.0000000e+00 0.0000000e+00 
0.0000000e+00 0.0000000e+00 0.0000000e+00 
0.0000000e+00 0.0000000e+00 0.0000000e+00 
0.0000000e+00 0.0000000e+00 0.0000000e+00 
0.0000000e+00 0.0000000e+00 0.0000000e+00 
0.0000000e+00 0.0000000e+00 0.0000000e+00 
0.0000000e+00 0.0000000e+00 0.0000000e+00 
0.0000000e+00 0.0000000e+00 0.0000000e+00 
0.0000000e+00 0.0000000e+00 0.0000000e+00 
0.0000000e+00 0.0000000e+00 0.0000000e+00 
0.0000000e+00 0.0000000e+00 0.0000000e+00 
0.0000000e+00 0.0000000e+00 0.0000000e+00 
0.0000000e+00 0.0000000e+00 0.0000000e+00 
0.0000000e+00 0.0000000e+00 0.0000000e+00 
0.0000000e+00 0.0000000e+00 0.0000000e+00 
0.0000000e+00 0.0000000e+00 0.0000000e+00 
0.0000000e+00 0.0000000e+00 0.0000000e+00 
0.0000000e+00 0.0000000e+00 0.0000000e+00 
0.0000000e+00 0.0000000e+00 0.0000000e+00 
0.0000000e+00 0.0000000e+00 0.0000000e+00 
0.0000000e+00 0.0000000e+00 0.0000000e+00 
0.0000000e+00 0.0000000e+00 0.0000000e+00 
0.0000000e+00 0.0000000e+00 0.0000000e+00 
0.0000000e+00 0.0000000e+00 0.0000000e+00 
0.0000000e+00 0.0000000e+00 0.0000000e+00 
0.0000000e+00 0.0000000e+00 0.0000000e+00 
0.0000000e+00 0.0000000e+00 0.0000000e+00 
0.0000000e+00 0.0000000e+00 0.0000000e+00 
0.0000000e+00 0.0000000e+00 0.0000000e+00 
0.0000000e+00 0.0000000e+00 0.0000000e+00 
0.0000000e+00 0.0000000e+00 0.0000000e+00 
0.0000000e+00 0.0000000e+00 0.0000000e+00 
0.0000000e+00 0.0000000e+00 0.0000000e+00 
0.0000000e+00 0.0000000e+00 0.0000000e+00 
0.0000000e+00 0.0000000e+00 0.0000000e+00 
0.0000000e+00 0.0000000e+00 0.0000000e+00 
0.0000000e+00 0.0000000e+00 0.0000000e+00 
0.0000000e+00 0.0000000e+00 0.0000000e+00 
0.0000000e+00 0.0000000e+00 0.0000000e+00 
0.0000000e+00 0.0000000e+00 0.0000000e+00 
0.0000000e+00 0.0000000e+00 0.0000000e+00 
0.0000000e+00 0.0000000e+00 0.0000000e+00 
0.0000000e+00 0.0000000e+00 0.0000000e+00 
0.0000000e+00 0.0000000e+00 0.0000000e+00 
0.0000000e+00 0.0000000e+00 0.0000000e+00 
0.0000000e+00 0.0000000e+00 0.0000000e+00 
0.0000000e+00 0.0000000e+00 0.0000000e+00 
0.0000000e+00 0.0000000e+00 0.0000000e+00 
0.0000000e+00 0.0000000e+00 0.0000000e+00 
0.0000000e+00 0.0000000e+00 0.0000000e+00 
0.0000000e+00 0.0000000e+00 0.0000000e+00 
0.0000000e+00 0.0000000e+00 0.0000000e+00 
0.0000000e+00 0.0000000e+00 0.0000000e+00 
0.0000000e+00 0.0000000e+00 0.0000000e+00 
0.0000000e+00 0.0000000e+00 0.0000000e+00 
0.0000000e+00 0.0000000e+00 0.0000000e+00 
0.0000000e+00 0.0000000e+00 0.0000000e+00 
0.0000000e+00 0.0000000e+00 0.0000000e+00 
0.0000000e+00 0.0000000e+00 0.0000000e+00 
0.0000000e+00 0.0000000e+00 0.0000000e+00 
0.0000000e+00 0.0000000e+00 0.0000000e+00 
0.0000000e+00 0.0000000e+00 0.0000000e+00 
0.0000000e+00 0.0000000e+00 0.0000000e+00 
0.0000000e+00 0.0000000e+00 0.0000000e+00 
0.0000000e+00 0.0000000e+00 0.0000000e+00 
0.0000000e+00 0.0000000e+00 0.0000000e+00 
0.0000000e+00 0.0000000e+00 0.0000000e+00 
0.0000000e+00 0.0000000e+00 0.0000000e+00 
0.0000000e+00 0.0000000e+00 0.0000000e+00 
0.0000000e+00 0.0000000e+00 0.0000000e+00 
0.0000000e+00 0.0000000e+00 0.0000000e+00 
0.0000000e+00 0.0000000e+00 0.0000000e+00 
0.0000000e+00 0.0000000e+00 0.0000000e+00 
0.0000000e+00 0.0000000e+00 0.0000000e+00 
0.0000000e+00 0.0000000e+00 0.0000000e+00 
0.0000000e+00 0.0000000e+00 0.0000000e+00 
0.0000000e+00 0.0000000e+00 0.0000000e+00 
0.0000000e+00 0.0000000e+00 0.0000000e+00 
0.0000000e+00 0.0000000e+00 0.0000000e+00 
0.0000000e+00 0.0000000e+00 0.0000000e+00 
0.0000000e+00 0.0000000e+00 0.0000000e+00 
0.0000000e+00 0.0000000e+00 0.0000000e+00 
0.0000000e+00 0.0000000e+00 0.0000000e+00 
0.0000000e+00 0.0000000e+00 0.0000000e+00 
0.0000000e+00 0.0000000e+00 0.0000000e+00 
0.0000000e+00 0.0000000e+00 0.0000000e+00 
0.0000000e+00 0.0000000e+00 0.0000000e+00 
0.0000000e+00 0.0000000e+00 0.0000000e+00 
0.0000000e+00 0.0000000e+00 0.0000000e+00 
0.0000000e+00 0.0000000e+00 0.0000000e+00 
0.0000000e+00 0.0000000e+00 0.0000000e+00 
0.0000000e+00 0.0000000e+00 0.0000000e+00 
0.0000000e+00 0.0000000e+00 0.0000000e+00 
0.0000000e+00 0.0000000e+00 0.0000000e+00 
0.0000000e+00 0.0000000e+00 0.0000000e+00 
0.0000000e+00 0.0000000e+00 0.0000000e+00 
0.0000000e+00 0.0000000e+00 0.0000000e+00 
0.0000000e+00 0.0000000e+00 0.0000000e+00 
0.0000000e+00 0.0000000e+00 0.0000000e+00 
0.0000000e+00 0.0000000e+00 0.0000000e+00 
0.0000000e+00 0.0000000e+00 0.0000000e+00 
0.0000000e+00 0.0000000e+00 0.0000000e+00 
0.0000000e+00 0.0000000e+00 0.0000000e+00 
0.0000000e+00 0.0000000e+00 0.0000000e+00 
0.0000000e+00 0.0000000e+00 0.0000000e+00 
0.0000000e+00 0.0000000e+00 0.0000000e+00 
0.0000000e+00 0.0000000e+00 0.0000000e+00 
0.0000000e+00 0.0000000e+00 0.0000000e+00 
0.0000000e+00 0.0000000e+00 0.0000000e+00 
0.0000000e+00 0.0000000e+00 0.0000000e+00 
0.0000000e+00 0.0000000e+00 0.0000000e+00 
0.0000000e+00 0.0000000e+00 0.0000000e+00 
0.0000000e+00 0.0000000e+00 0.0000000e+00 
0.0000000e+00 0.0000000e+00 0.0000000e+00 
0.0000000e+00 0.0000000e+00 0.0000000e+00 
0.0000000e+00 0.0000000e+00 0.0000000e+00 
0.0000000e+00 0.0000000e+00 0.0000000e+00 
0.0000000e+00 0.0000000e+00 0.0000000e+00 
0.0000000e+00 0.0000000e+00 0.0000000e+00 
0.0000000e+00 0.0000000e+00 0.0000000e+00 
0.0000000e+00 0.0000000e+00 0.0000000e+00 
0.0000000e+00 0.0000000e+00 0.0000000e+00 
0.0000000e+00 0.0000000e+00 0.0000000e+00 
0.0000000e+00 0.0000000e+00 0.0000000e+00 
0.0000000e+00 0.0000000e+00 0.0000000e+00 
0.0000000e+00 0.0000000e+00 0.0000000e+00 
0.0000000e+00 0.0000000e+00 0.0000000e+00 
0.0000000e+00 0.0000000e+00 0.0000000e+00 
0.0000000e+00 0.0000000e+00 0.0000000e+00 
0.0000000e+00 0.0000000e+00 0.0000000e+00 
0.0000000e+00 0.0000000e+00 0.0000000e+00 
0.0000000e+00 0.0000000e+00 0.0000000e+00 
0.0000000e+00 0.0000000e+00 0.0000000e+00 
0.0000000e+00 0.0000000e+00 0.0000000e+00 
0.0000000e+00 0.0000000e+00 0.0000000e+00 
0.0000000e+00 0.0000000e+00 0.0000000e+00 
0.0000000e+00 0.0000000e+00 0.0000000e+00 
0.0000000e+00 0.0000000e+00 0.0000000e+00 
0.0000000e+00 0.0000000e+00 0.0000000e+00 
0.0000000e+00 0.0000000e+00 0.0000000e+00 
0.0000000e+00 0.0000000e+00 0.0000000e+00 
0.0000000e+00 0.0000000e+00 0.0000000e+00 
0.0000000e+00 0.0000000e+00 0.0000000e+00 
0.0000000e+00 0.0000000e+00 0.0000000e+00 
0.0000000e+00 0.0000000e+00 0.0000000e+00 
0.0000000e+00 0.0000000e+00 0.0000000e+00 
0.0000000e+00 0.0000000e+00 0.0000000e+00 
0.0000000e+00 0.0000000e+00 0.0000000e+00 
0.0000000e+00 0.0000000e+00 0.0000000e+00 
0.0000000e+00 0.0000000e+00 0.0000000e+00 
0.0000000e+00 0.0000000e+00 0.0000000e+00 
0.0000000e+00 0.0000000e+00 0.0000000e+00 
0.0000000e+00 0.0000000e+00 0.0000000e+00 
0.0000000e+00 0.0000000e+00 0.0000000e+00 
0.0000000e+00 0.0000000e+00 0.0000000e+00 
0.0000000e+00 0.0000000e+00 0.0000000e+00 
0.0000000e+00 0.0000000e+00 0.0000000e+00 
0.0000000e+00 0.0000000e+00 0.0000000e+00 
0.0000000e+00 0.0000000e+00 0.0000000e+00 
0.0000000e+00 0.0000000e+00 0.0000000e+00 
0.0000000e+00 0.0000000e+00 0.0000000e+00 
0.0000000e+00 0.0000000e+00 0.0000000e+00 
0.0000000e+00 0.0000000e+00 0.0000000e+00 
0.0000000e+00 0.0000000e+00 0.0000000e+00 
0.0000000e+00 0.0000000e+00 0.0000000e+00 
0.0000000e+00 0.0000000e+00 0.0000000e+00 
0.0000000e+00 0.0000000e+00 0.0000000e+00 
0.0000000e+00 0.0000000e+00 0.0000000e+00 
0.0000000e+00 0.0000000e+00 0.0000000e+00 
0.0000000e+00 0.0000000e+00 0.0000000e+00 
0.0000000e+00 0.0000000e+00 0.0000000e+00 
0.0000000e+00 0.0000000e+00 0.0000000e+00 
0.0000000e+00 0.0000000e+00 0.0000000e+00 
0.0000000e+00 0.0000000e+00 0.0000000e+00 
0.0000000e+00 0.0000000e+00 0.0000000e+00 
0.0000000e+00 0.0000000e+00 0.0000000e+00 
0.0000000e+00 0.0000000e+00 0.0000000e+00 
SHAPE_CHANGE 3 422  float
-2.0254110e-01 -1.7347235e-18 0.0000000e+00 
0.0000000e+00 0.0000000e+00 0.0000000e+00 
0.0000000e+00 0.0000000e+00 0.0000000e+00 
0.0000000e+00 0.0000000e+00 0.0000000e+00 
0.0000000e+00 0.0000000e+00 0.0000000e+00 
0.0000000e+00 0.0000000e+00 0.0000000e+00 
0.0000000e+00 0.0000000e+00 0.0000000e+00 
0.0000000e+00 0.0000000e+00 0.0000000e+00 
0.0000000e+00 0.0000000e+00 0.0000000e+00 
0.0000000e+00 0.0000000e+00 0.0000000e+00 
0.0000000e+00 0.0000000e+00 0.0000000e+00 
0.0000000e+00 0.0000000e+00 0.0000000e+00 
0.0000000e+00 0.0000000e+00 0.0000000e+00 
0.0000000e+00 0.0000000e+00 0.0000000e+00 
0.0000000e+00 0.0000000e+00 0.0000000e+00 
0.0000000e+00 0.0000000e+00 0.0000000e+00 
0.0000000e+00 0.0000000e+00 0.0000000e+00 
0.0000000e+00 0.0000000e+00 0.0000000e+00 
0.0000000e+00 0.0000000e+00 0.0000000e+00 
0.0000000e+00 0.0000000e+00 0.0000000e+00 
0.0000000e+00 0.0000000e+00 0.0000000e+00 
0.0000000e+00 0.0000000e+00 0.0000000e+00 
0.0000000e+00 0.0000000e+00 0.0000000e+00 
0.0000000e+00 0.0000000e+00 0.0000000e+00 
0.0000000e+00 0.0000000e+00 0.0000000e+00 
0.0000000e+00 0.0000000e+00 0.0000000e+00 
0.0000000e+00 0.0000000e+00 0.0000000e+00 
0.0000000e+00 0.0000000e+00 0.0000000e+00 
0.0000000e+00 0.0000000e+00 0.0000000e+00 
0.0000000e+00 0.0000000e+00 0.0000000e+00 
0.0000000e+00 0.0000000e+00 0.0000000e+00 
0.0000000e+00 0.0000000e+00 0.0000000e+00 
0.0000000e+00 0.0000000e+00 0.0000000e+00 
0.0000000e+00 0.0000000e+00 0.0000000e+00 
0.0000000e+00 0.0000000e+00 0.0000000e+00 
0.0000000e+00 0.0000000e+00 0.0000000e+00 
0.0000000e+00 0.0000000e+00 0.0000000e+00 
0.0000000e+00 0.0000000e+00 0.0000000e+00 
0.0000000e+00 0.0000000e+00 0.0000000e+00 