/*--------------------------------*- C++ -*----------------------------------*\
| =========                 |                                                 |
| \\      /  F ield         | OpenFOAM: The Open Source CFD Toolbox           |
|  \\    /   O peration     | Version:  4.1                                   |
|   \\  /    A nd           | Web:      www.OpenFOAM.org                      |
|    \\/     M anipulation  |                                                 |
\*---------------------------------------------------------------------------*/
FoamFile
{
    version     2.0;
    format      ascii;
    class       volScalarField;
    location    "100";
    object      epsilon;
}
// * * * * * * * * * * * * * * * * * * * * * * * * * * * * * * * * * * * * * //

dimensions      [0 2 -3 0 0 0 0];

internalField   nonuniform List<scalar> 
1600
(
8.41184e-05
0.000104867
0.000123914
0.00013782
0.000155943
0.000167242
0.000179025
0.00020197
0.000332572
0.0054524
0.0238964
0.0370335
0.0466125
0.0543914
0.0609654
0.0663953
0.0708371
0.0745983
0.0782258
0.0809127
0.0847085
0.0877578
0.0905457
0.0931139
0.0955316
0.0976845
0.0997563
0.101536
0.103315
0.10437
0.106299
0.107486
0.108426
0.109506
0.110465
0.111551
0.112395
0.113052
0.113399
0.114491
0.120501
0.119922
0.118398
0.117149
0.11618
0.115562
0.115232
0.1154
0.115304
0.114897
8.44099e-05
0.000104287
0.000122835
0.00013724
0.000155009
0.000166066
0.000177835
0.000202221
0.000317027
0.00522874
0.0238444
0.0369438
0.0465079
0.0542829
0.0608502
0.0662387
0.0706577
0.0743814
0.077966
0.0806507
0.0844292
0.0875184
0.0902859
0.092852
0.0952649
0.0974207
0.0994917
0.101272
0.103053
0.104114
0.106024
0.107206
0.108137
0.10922
0.11019
0.111284
0.112135
0.112795
0.113142
0.114234
0.120529
0.119671
0.118137
0.116897
0.11593
0.115313
0.114982
0.11515
0.115053
0.114646
8.44933e-05
0.000104254
0.000122041
0.000136953
0.000154965
0.0001663
0.000178035
0.000201253
0.000317208
0.00532097
0.0237737
0.0368529
0.0464101
0.0541964
0.060765
0.0661246
0.0705441
0.0742625
0.0778463
0.0805426
0.0842738
0.0873754
0.0901533
0.0927265
0.0951492
0.0973093
0.0993869
0.101168
0.102954
0.10402
0.105924
0.107108
0.108038
0.109123
0.110096
0.111193
0.112046
0.112709
0.113057
0.114147
0.120374
0.119592
0.118056
0.116817
0.115851
0.115234
0.114902
0.115071
0.114974
0.114566
8.43716e-05
0.000104931
0.00012109
0.000135404
0.000153986
0.000165272
0.000176737
0.000201491
0.000319463
0.00545731
0.0236871
0.0368008
0.0463781
0.0541721
0.06076
0.0661397
0.0705742
0.0743136
0.0779223
0.0806313
0.0843552
0.0874304
0.0902264
0.0928074
0.0952416
0.0974016
0.0994835
0.101266
0.103054
0.104119
0.106029
0.107216
0.108154
0.10924
0.11021
0.111304
0.112154
0.112816
0.113165
0.114254
0.120209
0.119685
0.118172
0.116925
0.115958
0.11534
0.115009
0.115178
0.115081
0.114674
8.40214e-05
0.000105353
0.000122736
0.000135698
0.000154121
0.000164774
0.000176022
0.000199897
0.000313965
0.00553369
0.0237692
0.0369368
0.0465398
0.0543475
0.0609488
0.066377
0.0708213
0.0745854
0.0782277
0.080932
0.0847073
0.0877489
0.0905518
0.0931271
0.0955579
0.0977128
0.0997918
0.101573
0.103355
0.104412
0.106341
0.107528
0.108471
0.109554
0.110516
0.111604
0.112449
0.113107
0.113456
0.114547
0.120453
0.119979
0.118461
0.117207
0.116236
0.115618
0.11529
0.115456
0.11536
0.114954
8.64774e-05
8.75053e-05
9.02357e-05
9.653e-05
0.000104903
0.000111181
0.000113788
0.000118681
0.00012965
0.000408315
0.00231322
0.00774316
0.0141748
0.0199734
0.0252781
0.0302535
0.0347771
0.0385749
0.0424216
0.0451375
0.0482649
0.0505683
0.0526189
0.0544858
0.0563187
0.0580522
0.0598435
0.0613922
0.0631509
0.0642991
0.0661154
0.0673649
0.0682871
0.0693963
0.0706245
0.0719687
0.0732288
0.074303
0.0751128
0.0756689
0.0786693
0.0797129
0.0796854
0.0795136
0.079151
0.0787767
0.0783347
0.0784333
0.0783482
0.0780167
8.64772e-05
8.72131e-05
8.98405e-05
9.39219e-05
9.99279e-05
0.000106593
0.000113551
0.000121727
0.000130973
0.000441857
0.0024235
0.00782623
0.0141352
0.0200505
0.0254853
0.0304521
0.0349244
0.038698
0.0424338
0.0452166
0.0482655
0.0506079
0.0526594
0.0545512
0.0562404
0.0581051
0.0598323
0.0613915
0.0631053
0.0642526
0.0660532
0.0672595
0.0681439
0.0692589
0.0705136
0.0718699
0.073121
0.0741821
0.0749803
0.0755211
0.0786587
0.0795456
0.0795192
0.0793392
0.0789879
0.078613
0.0781667
0.0782603
0.0781719
0.0778371
8.64647e-05
8.72105e-05
9.00314e-05
9.39352e-05
0.000100253
0.000107583
0.000113264
0.000119055
0.000132139
0.0003759
0.00220927
0.00753112
0.013941
0.0199808
0.0255388
0.0305498
0.0350175
0.0387651
0.0423345
0.0452248
0.0481428
0.0505722
0.0526751
0.0545391
0.056208
0.058067
0.0598713
0.0613705
0.0631129
0.0643003
0.0659795
0.0671047
0.0679825
0.0691245
0.0704245
0.071798
0.0730394
0.0740965
0.0749092
0.0754155
0.0785269
0.0794356
0.0794669
0.0792585
0.0789096
0.078536
0.0780788
0.0781852
0.0781043
0.0777483
8.6517e-05
8.74475e-05
9.05687e-05
9.45733e-05
9.88764e-05
0.000104804
0.000114248
0.000122266
0.000135269
0.000426935
0.00236082
0.00771464
0.0141454
0.0198773
0.0253633
0.0304092
0.0349059
0.038647
0.0422175
0.0451092
0.0480379
0.0504562
0.0526262
0.0544196
0.0562393
0.0579828
0.0598529
0.0613217
0.0631012
0.0642861
0.0659536
0.0671297
0.0680397
0.0691653
0.0704342
0.0717915
0.0730352
0.0741017
0.0749371
0.0754444
0.0784045
0.0795091
0.0794975
0.0793174
0.0789659
0.0785917
0.0781411
0.0782482
0.0781706
0.0778106
8.6468e-05
8.73981e-05
9.16429e-05
9.79881e-05
0.000102544
0.00010749
0.000112051
0.000118245
0.000129984
0.000370373
0.00217756
0.00753184
0.0140101
0.0198823
0.0252891
0.0302903
0.0347723
0.0385064
0.0422349
0.0450155
0.0480869
0.0504196
0.0525762
0.0543571
0.0563105
0.0579695
0.0598894
0.0613972
0.0631516
0.064322
0.0660756
0.0673195
0.0682574
0.0693665
0.0705871
0.0719269
0.073184
0.0742573
0.0750898
0.0756308
0.0785583
0.0796702
0.0797045
0.0795089
0.079144
0.0787637
0.0783305
0.0784298
0.0783523
0.0780033
0.000106971
0.000116332
0.000142026
0.000179076
0.000216472
0.000240846
0.000285063
0.000353476
0.000409893
0.000499763
0.00063841
0.00104883
0.00211639
0.00430807
0.00778596
0.0113736
0.0155014
0.0191047
0.0227211
0.0257051
0.0284089
0.0302547
0.0316225
0.0327817
0.0338929
0.0351108
0.0364635
0.037257
0.0382985
0.0391668
0.0403354
0.0416075
0.042881
0.0443452
0.0459611
0.0474996
0.0490853
0.0503497
0.0516055
0.0520061
0.0537397
0.0553719
0.0563215
0.0565552
0.0568241
0.0567505
0.0565799
0.0567148
0.0565358
0.0562892
0.000106098
0.000112589
0.000128046
0.000164943
0.00020677
0.000242853
0.000293175
0.000351488
0.00041019
0.000491994
0.00065457
0.00103534
0.00195751
0.0044623
0.00793889
0.0116198
0.015422
0.0191417
0.0227373
0.0260014
0.028563
0.0303746
0.0317668
0.0329214
0.0340433
0.0351971
0.0365131
0.0373713
0.0385568
0.039422
0.0405823
0.0418038
0.0430138
0.0444064
0.0459802
0.0474907
0.0490095
0.050195
0.0514581
0.0518258
0.0535732
0.0551221
0.0560542
0.0562912
0.0565397
0.0564752
0.0563871
0.0564194
0.0562384
0.0559866
0.000106426
0.000112826
0.000124825
0.000150016
0.000205054
0.000241333
0.000283422
0.000338552
0.000392722
0.000472379
0.000605822
0.00102531
0.00204344
0.00456517
0.00804464
0.011766
0.015637
0.0192893
0.0229037
0.0259129
0.0285635
0.030434
0.0318059
0.0330723
0.0341818
0.0352392
0.0365342
0.0373539
0.0385487
0.0394154
0.0405258
0.0416978
0.0428646
0.0442203
0.0457269
0.0472339
0.0487488
0.0499018
0.0512274
0.0515453
0.0532848
0.0548806
0.0557966
0.0560393
0.0563025
0.0562682
0.0560467
0.0561617
0.0561772
0.0557345
0.000106078
0.0001135
0.000126515
0.000142651
0.000175807
0.000237257
0.000303227
0.000360893
0.000404748
0.000479971
0.00062934
0.00106479
0.00193509
0.00438225
0.00779754
0.0115254
0.0153895
0.0190374
0.0226389
0.0258281
0.0285407
0.0304942
0.0318059
0.0330912
0.0341718
0.0352548
0.0365427
0.0372795
0.0384177
0.0392874
0.0403896
0.0415467
0.0426834
0.0440382
0.0455444
0.0470742
0.0486237
0.0497936
0.0511596
0.0514424
0.0531513
0.054834
0.0557752
0.0560288
0.0563071
0.0562686
0.0560723
0.0561892
0.0562354
0.0557675
0.000106207
0.000115404
0.000133268
0.000151569
0.000170707
0.000201938
0.000258315
0.000329083
0.000380033
0.000454095
0.000602092
0.000983101
0.00200666
0.00450621
0.00796728
0.0116807
0.0154061
0.0191309
0.0227076
0.0258371
0.0285033
0.0304142
0.0317882
0.0330201
0.0340979
0.0352706
0.0365266
0.0372844
0.0383163
0.0392246
0.0403456
0.041518
0.0426906
0.0440904
0.0456387
0.0471964
0.0487818
0.05
0.0513569
0.0516829
0.0533933
0.0551088
0.0560532
0.0563093
0.0566127
0.0564214
0.0563889
0.0564761
0.0565272
0.0560556
0.000165901
0.000295268
0.000438008
0.000650667
0.000954847
0.0013008
0.00170395
0.00215742
0.00262111
0.00305611
0.00341518
0.00369843
0.00399825
0.00448335
0.00549024
0.00711493
0.00960695
0.0125746
0.0157121
0.0186556
0.0211371
0.0230856
0.024477
0.0256304
0.0266518
0.0277258
0.0285933
0.0288282
0.0296484
0.0305847
0.0314396
0.0325621
0.0341008
0.0354465
0.0373206
0.0387702
0.0402735
0.0420217
0.0434755
0.0440062
0.0452373
0.046812
0.0483187
0.0490128
0.0494845
0.0494744
0.0496196
0.0495968
0.0495987
0.049489
0.000220479
0.000412555
0.000749074
0.00105542
0.00136706
0.00175556
0.00220379
0.0026393
0.00309614
0.00348176
0.0038267
0.00403476
0.00434666
0.00507114
0.00591114
0.00740968
0.00966183
0.0124762
0.0155799
0.0185594
0.0212995
0.0234037
0.0250478
0.0262187
0.0271433
0.0280305
0.0283845
0.028477
0.0293326
0.0298754
0.0305788
0.0315236
0.0326191
0.033837
0.0351734
0.0364377
0.037989
0.0392488
0.0407774
0.0409891
0.0423449
0.0440096
0.0453961
0.0462049
0.0463215
0.0464655
0.046818
0.0465895
0.046646
0.0463494
0.00022903
0.000357602
0.000640408
0.000961903
0.00130243
0.00165577
0.00208017
0.00252797
0.00298208
0.00344203
0.003822
0.00404754
0.00424099
0.00466906
0.00557684
0.00701049
0.0091439
0.0118604
0.0148788
0.0179194
0.0203959
0.0223525
0.0241724
0.0254577
0.0262992
0.0272904
0.0273292
0.0274525
0.0282784
0.0289386
0.0295633
0.0304066
0.0314112
0.0325906
0.0339329
0.0352878
0.0368851
0.0380879
0.0397502
0.0399974
0.0413551
0.0430911
0.0444638
0.0453459
0.0456535
0.0459195
0.0458656
0.0459069
0.0461261
0.0455916
0.000231254
0.000326288
0.000522334
0.000868808
0.00125847
0.00169175
0.00219272
0.00267736
0.00311379
0.00358051
0.00395303
0.00416062
0.00435312
0.00478144
0.00538422
0.00672595
0.00884547
0.0117526
0.0148014
0.0177483
0.0202615
0.0223195
0.0237513
0.0250126
0.0258577
0.0267471
0.0272432
0.0269421
0.0276743
0.0283423
0.0290089
0.0299184
0.0310036
0.0322676
0.0336728
0.035076
0.0367208
0.0379381
0.0396194
0.0398636
0.0412414
0.0429825
0.0444281
0.0452623
0.0455235
0.0458811
0.0460038
0.0458608
0.0459159
0.0456607
0.00024022
0.00033546
0.000473254
0.000743716
0.00109445
0.00147098
0.00191505
0.00242456
0.00290149
0.00338402
0.00378105
0.00404076
0.0042269
0.00452814
0.00513389
0.00651717
0.00885368
0.011666
0.0147164
0.017771
0.0202328
0.0223047
0.0235731
0.0247106
0.0255338
0.0265918
0.0271041
0.0268931
0.0276839
0.0283984
0.0291307
0.0301197
0.0313008
0.0326509
0.0341672
0.035653
0.0373761
0.0386845
0.0403734
0.0406485
0.0420276
0.0437955
0.0452485
0.0460796
0.0465347
0.0465436
0.0466647
0.0467829
0.0468247
0.0465161
0.0047612
0.00495239
0.00510276
0.00516313
0.0051898
0.00523719
0.00534464
0.00553695
0.00571222
0.00593976
0.00619427
0.00639926
0.00653396
0.00669756
0.00701551
0.00779529
0.0095301
0.0127458
0.0167456
0.0213148
0.0251618
0.028604
0.0313895
0.0335105
0.0350179
0.0366102
0.0374106
0.0370101
0.0380601
0.0390952
0.0402184
0.04187
0.0436618
0.0455826
0.0477382
0.0498224
0.0521623
0.0538736
0.0559078
0.0570383
0.0586031
0.0608928
0.0629399
0.0638266
0.064245
0.0650922
0.0657208
0.0651745
0.0652253
0.0648916
0.00477086
0.00492409
0.0050289
0.00513645
0.00519221
0.00521713
0.00527499
0.00541292
0.00556654
0.00574541
0.00598869
0.00625175
0.00648498
0.00664686
0.00697887
0.00763394
0.00913889
0.0120013
0.0157518
0.0200467
0.0238289
0.0271328
0.0298056
0.0319289
0.0333764
0.0350315
0.0360132
0.0356912
0.0366972
0.0376478
0.0386811
0.0403285
0.0422574
0.0440722
0.0459072
0.0476635
0.0499594
0.0515723
0.053829
0.0550502
0.0566535
0.0588272
0.0610258
0.0623737
0.0624391
0.0626291
0.0636944
0.063301
0.0639128
0.0628468
0.00477497
0.00494153
0.00503046
0.00512759
0.00519635
0.00524979
0.0052861
0.00536168
0.00547471
0.00562079
0.00581714
0.00604451
0.0062738
0.00646387
0.00680094
0.00745254
0.00886741
0.011484
0.0151421
0.019229
0.0233643
0.0265559
0.0289876
0.0310475
0.0323852
0.0340536
0.0350023
0.0349541
0.0359017
0.0368581
0.0378144
0.0393764
0.0412833
0.0431223
0.0449866
0.0469087
0.0491595
0.050885
0.0530114
0.0544236
0.0561147
0.0582448
0.060144
0.0616036
0.0615867
0.06229
0.0622782
0.062672
0.0624375
0.0622177
0.004773
0.00495133
0.00504118
0.00510828
0.00516831
0.00524627
0.00528067
0.00534495
0.00545384
0.00559758
0.00573909
0.00590762
0.0061048
0.0062848
0.00659059
0.00722359
0.00854227
0.0112748
0.014784
0.0192573
0.0227665
0.0263654
0.0289224
0.0309933
0.0322802
0.0337808
0.0349241
0.0345447
0.0354248
0.0364077
0.0376706
0.0392783
0.0409773
0.0431031
0.0451089
0.0469543
0.0493041
0.0509705
0.05311
0.0544638
0.0561415
0.05813
0.0603834
0.0607682
0.0612552
0.0623694
0.0621584
0.0623454
0.0624178
0.0621958
0.00478079
0.00496139
0.00506136
0.00512632
0.00516386
0.0052216
0.00533003
0.00536725
0.00542444
0.00553865
0.0056538
0.00573551
0.00580072
0.00591416
0.00615577
0.00677476
0.0082454
0.0111588
0.0147905
0.0192149
0.0228979
0.0261142
0.028679
0.0307797
0.0320425
0.0338958
0.03392
0.0341338
0.0351746
0.0365106
0.0374906
0.0390087
0.0408869
0.0428372
0.0449406
0.0469219
0.0493348
0.0510353
0.0532169
0.0544715
0.0562055
0.0581224
0.0604251
0.0609692
0.0615
0.0624796
0.062603
0.0634479
0.0634935
0.0625958
0.000202682
0.000138431
0.000160312
0.000206049
0.000264184
0.000233518
0.000609029
0.000330483
0.000206994
0.000277329
0.000396095
0.000500805
0.000739181
0.00108264
0.000474376
0.000326428
0.000408433
0.000639125
0.000679973
0.00131546
0.00153056
0.000712711
0.000486178
0.000629854
0.000871592
0.000927394
0.00168052
0.00176868
0.00103026
0.000745088
0.000926636
0.00119126
0.00125299
0.00197258
0.00210994
0.00138257
0.00105738
0.00125098
0.00156426
0.00165745
0.00235281
0.00250557
0.00179969
0.00140512
0.00162721
0.0020433
0.00214966
0.00281291
0.00301517
0.00226457
0.00180045
0.00205454
0.00257451
0.00269203
0.00330992
0.00356232
0.00272957
0.00222944
0.00249147
0.00309093
0.0031979
0.00379019
0.00402908
0.00315073
0.00265258
0.00288669
0.0035786
0.00367525
0.00422489
0.00443831
0.0034906
0.00301703
0.00321347
0.0039878
0.00406273
0.00460706
0.00477433
0.00376751
0.00331984
0.00351132
0.00426608
0.00431868
0.00487971
0.00499248
0.00409107
0.00367504
0.00389329
0.00447568
0.00452713
0.0050839
0.00521026
0.00466951
0.00438731
0.00468265
0.00481124
0.004902
0.00541471
0.00563906
0.0056165
0.00562453
0.00616567
0.00558203
0.00575249
0.00607588
0.00643487
0.00746616
0.00736224
0.00837905
0.00701314
0.00750692
0.00743523
0.0079079
0.010157
0.0100086
0.0112261
0.00922742
0.00995166
0.00948951
0.0102233
0.0132273
0.0130956
0.0143695
0.0121096
0.0129376
0.0123232
0.013274
0.0163541
0.0163273
0.0175597
0.0151759
0.0159842
0.0155435
0.0165398
0.0192666
0.0193438
0.0204056
0.0181605
0.0189985
0.0186025
0.0197043
0.0215339
0.0218896
0.0227447
0.0207181
0.0211679
0.0212343
0.0221843
0.0233588
0.0239332
0.024581
0.0226482
0.0229207
0.0233876
0.0242549
0.0245916
0.0254824
0.0259496
0.0241364
0.0242636
0.0252655
0.0257935
0.0257511
0.0267072
0.0271126
0.0253602
0.0254282
0.0266257
0.0270249
0.0267402
0.0277669
0.0281475
0.0263266
0.0263328
0.0276415
0.0280542
0.0278356
0.0288083
0.0291469
0.0273699
0.0273663
0.0283347
0.0285529
0.028751
0.0297351
0.0301077
0.0278409
0.0279854
0.0292863
0.0292698
0.0289302
0.0300001
0.0300656
0.02808
0.0280864
0.0295456
0.0291807
0.030102
0.0306654
0.0313337
0.0288166
0.0292565
0.0298035
0.0305713
0.0305536
0.0316699
0.0315635
0.0294346
0.0296064
0.0303899
0.0305067
0.0315389
0.032342
0.0328814
0.0305465
0.0305355
0.031391
0.0319078
0.033058
0.0335844
0.0342109
0.0316143
0.0317863
0.0326798
0.0332113
0.0342531
0.034996
0.0355415
0.0330792
0.0331747
0.0340927
0.0346303
0.0360906
0.0363788
0.0371145
0.0344546
0.0348432
0.0355097
0.0361347
0.0374849
0.0381609
0.0382909
0.036359
0.0364311
0.0373152
0.0373265
0.0389787
0.0394612
0.0396654
0.0378583
0.0379419
0.0385768
0.0386679
0.0410881
0.0407993
0.0417722
0.0393437
0.0401279
0.0398786
0.0408808
0.0424313
0.0425394
0.0431061
0.0412722
0.0413148
0.041771
0.0422867
0.043601
0.0439542
0.0440689
0.0426268
0.0430998
0.0431513
0.0436163
0.044241
0.0444157
0.0446788
0.0432474
0.0434301
0.0436676
0.0438699
0.045614
0.0455718
0.0462323
0.0445314
0.0446816
0.0448137
0.0454636
0.0475027
0.0471587
0.0478993
0.0460366
0.0467794
0.0464644
0.0472268
0.0486591
0.0486091
0.0489571
0.0477267
0.0479374
0.0481356
0.0481978
0.0492489
0.0492986
0.0495302
0.048413
0.0486357
0.0488864
0.0491893
0.0495375
0.049638
0.0497112
0.049074
0.0488867
0.0491365
0.0492048
0.0495517
0.0496346
0.0497992
0.049115
0.0491759
0.0493565
0.0494358
0.0495683
0.0497007
0.0497739
0.0493411
0.0492981
0.0495054
0.0496011
0.0496213
0.049763
0.0497417
0.0493147
0.0492453
0.0496653
0.0493735
0.049626
0.0497411
0.0497178
0.0492604
0.0494803
0.0495441
0.0494748
0.0492026
0.0496343
0.0493105
0.0491327
0.0489038
0.0493815
0.0490437
)
;

boundaryField
{
    inlet
    {
        type            turbulentMixingLengthDissipationRateInlet;
        mixingLength    0.5;
        phi             phi;
        k               k;
        value           nonuniform List<scalar> 
28
(
7.7439e-05
7.7439e-05
7.7439e-05
7.7439e-05
7.7439e-05
8.64043e-05
8.64044e-05
8.64044e-05
8.64044e-05
8.64043e-05
0.000105523
0.000105523
0.000105523
0.000105523
0.000105523
0.000127423
0.000136503
0.000136503
0.000136503
0.000136503
0.000181748
0.000181748
0.000181748
0.000181748
0.000181748
0.000146411
0.000146411
0.000127423
)
;
    }
    outlet
    {
        type            inletOutlet;
        inletValue      uniform 1;
        value           nonuniform List<scalar> 
28
(
0.114897
0.114646
0.114566
0.114674
0.114954
0.0780167
0.0778371
0.0777483
0.0778106
0.0780033
0.0562892
0.0559866
0.0557345
0.0557675
0.0560556
0.0492026
0.0463494
0.0455916
0.0456607
0.0465161
0.0648916
0.0628468
0.0622177
0.0621958
0.0625958
0.0493105
0.0490437
0.0489038
)
;
    }
    side1
    {
        type            cyclicAMI;
        value           nonuniform List<scalar> 
400
(
8.40699e-05
8.64727e-05
0.000106589
0.000189563
0.00477099
0.00010511
8.74517e-05
0.000115868
0.000308065
0.00495689
0.000123325
9.09393e-05
0.000137647
0.00044923
0.00508206
0.000136759
9.72591e-05
0.000165322
0.000680293
0.00514473
0.000155032
0.000103724
0.00019359
0.000999295
0.00517683
0.000166008
0.000109335
0.000221392
0.00135498
0.00522939
0.000177523
0.000112919
0.000271689
0.00177116
0.00533734
0.000200934
0.000118463
0.00034128
0.00224248
0.0054521
0.000323268
0.000129817
0.000394963
0.00271038
0.00556833
0.00549304
0.000389344
0.000476929
0.00316052
0.00573921
0.0238328
0.00224539
0.000620251
0.00353167
0.00592403
0.0369852
0.0076375
0.00101596
0.00380743
0.00606738
0.0465762
0.0140925
0.00206152
0.00407105
0.00616734
0.0543695
0.0199279
0.00440714
0.00449761
0.00630586
0.0609571
0.0252836
0.00787662
0.00537678
0.00658564
0.0663861
0.0302719
0.0115271
0.00692461
0.00728503
0.0708292
0.0347747
0.0154537
0.00936712
0.00888775
0.0745919
0.0385406
0.0191178
0.0122853
0.0119523
0.0782267
0.0423282
0.0227143
0.0153951
0.0157681
0.0809223
0.0450765
0.0257711
0.0183739
0.0202649
0.0847079
0.0481759
0.0284561
0.0208492
0.0240298
0.0877533
0.0504939
0.0303344
0.022837
0.0273591
0.0905487
0.0525976
0.0317053
0.0241892
0.0300342
0.0931205
0.0544214
0.0329009
0.0253375
0.0321451
0.0955448
0.0563146
0.0339954
0.0262959
0.0335302
0.0976987
0.0580109
0.0351907
0.0273648
0.035253
0.099774
0.0598664
0.0364951
0.0281192
0.0356653
0.101555
0.0613947
0.0372707
0.0282121
0.0355719
0.103335
0.0631512
0.0383074
0.0290229
0.0366174
0.104391
0.0643105
0.0391957
0.0298886
0.0378029
0.10632
0.0660955
0.0403405
0.0307044
0.0388545
0.107507
0.0673422
0.0415627
0.0317844
0.0404393
0.108448
0.0682723
0.0427858
0.0332093
0.0422744
0.10953
0.0693814
0.0442178
0.0345564
0.0442099
0.110491
0.0706058
0.0457999
0.0363165
0.0463394
0.111577
0.0719478
0.047348
0.0377777
0.0483722
0.112422
0.0732064
0.0489335
0.039351
0.0507486
0.11308
0.0742802
0.0501749
0.0409592
0.0524544
0.113428
0.0751013
0.0514812
0.0424878
0.0545624
0.114519
0.0756499
0.0518445
0.0429371
0.0557549
0.120477
0.0786138
0.0535665
0.0442154
0.0574043
0.119951
0.0796916
0.0552403
0.0458516
0.0595076
0.11843
0.0796949
0.0561873
0.0473412
0.0616825
0.117178
0.0795112
0.0564322
0.0480789
0.0623979
0.116208
0.0791475
0.0567184
0.0485453
0.0628725
0.11559
0.0787702
0.0565859
0.0485412
0.0637859
0.115261
0.0783326
0.0564844
0.0486788
0.0641619
0.115428
0.0784315
0.0565955
0.0487009
0.0643112
0.115332
0.0783502
0.0565315
0.0487155
0.0643594
0.114926
0.07801
0.0561724
0.0485424
0.0637437
0.000214634
0.000255884
0.000217884
0.000332068
0.000443536
0.000375093
0.000474019
0.000608374
0.000581674
0.000722583
0.000863775
0.000827301
0.0010507
0.00119808
0.00115773
0.00141072
0.00159287
0.00153195
0.00183642
0.0020684
0.00199888
0.00231551
0.00259939
0.00252257
0.00278431
0.00309524
0.00302532
0.00322501
0.00357438
0.0035112
0.00358307
0.00396517
0.00391619
0.00385451
0.00422242
0.00418804
0.00413432
0.00442314
0.00438951
0.0046245
0.00477251
0.00471318
0.00546284
0.00553823
0.00542681
0.00716401
0.00716411
0.00684136
0.00974202
0.00957136
0.00909797
0.0127302
0.0124971
0.011956
0.0158327
0.0155451
0.0150167
0.0187904
0.0185734
0.0180256
0.0211197
0.0208441
0.02055
0.0230232
0.0227074
0.0225292
0.0242673
0.0240245
0.0239413
0.0254198
0.0251796
0.0251352
0.0263561
0.0260561
0.026052
0.0274396
0.027098
0.0271004
0.0282266
0.0276802
0.0275857
0.0282816
0.0276731
0.0276689
0.0293321
0.0287118
0.0284243
0.0298674
0.029188
0.0290757
0.0307722
0.0300489
0.0300561
0.0321225
0.031209
0.0310966
0.0333131
0.0325256
0.0324632
0.0349954
0.0340839
0.0338299
0.0364285
0.0356469
0.0355998
0.0379198
0.0371492
0.0370945
0.0399062
0.0391748
0.0386622
0.0412384
0.0404038
0.040376
0.0425733
0.0421555
0.0418463
0.0430972
0.0424667
0.0423473
0.0444721
0.0437623
0.0436642
0.0463224
0.0457459
0.0452603
0.0475732
0.0470061
0.0468683
0.0482398
0.0477504
0.0476048
0.0485814
0.0480721
0.0481945
0.048594
0.0482642
0.0482244
0.0486438
0.048386
0.0484141
0.0487176
0.0483924
0.0484378
0.0487341
0.0485605
0.0484168
0.0483472
0.0480768
0.0482264
)
;
    }
    side2
    {
        type            cyclicAMI;
        value           nonuniform List<scalar> 
250
(
8.40699e-05
8.64727e-05
0.000106589
0.000219856
0.00477099
0.00010511
8.74517e-05
0.000115868
0.000365625
0.00495689
0.000123325
9.09393e-05
0.000137647
0.000529721
0.00508206
0.000136759
9.72591e-05
0.000165322
0.000774997
0.00514473
0.000155032
0.000103724
0.00019359
0.00110305
0.00517683
0.000166008
0.000109335
0.000221392
0.00147451
0.00522939
0.000177523
0.000112919
0.000271689
0.00192112
0.00533734
0.000200934
0.000118463
0.00034128
0.00242294
0.0054521
0.000323268
0.000129817
0.000394963
0.00290709
0.00556833
0.00549304
0.000389344
0.000476929
0.00337144
0.00573921
0.0238328
0.00224539
0.000620251
0.00375304
0.00592403
0.0369852
0.0076375
0.00101596
0.00402202
0.00606738
0.0465762
0.0140925
0.00206152
0.00425768
0.00616734
0.0543695
0.0199279
0.00440714
0.00465385
0.00630586
0.0609571
0.0252836
0.00787662
0.00545182
0.00658564
0.0663861
0.0302719
0.0115271
0.00702309
0.00728503
0.0708292
0.0347747
0.0154537
0.00944231
0.00888775
0.0745919
0.0385406
0.0191178
0.0123642
0.0119523
0.0782267
0.0423282
0.0227143
0.0154439
0.0157681
0.0809223
0.0450765
0.0257711
0.0184379
0.0202649
0.0847079
0.0481759
0.0284561
0.0208377
0.0240298
0.0877533
0.0504939
0.0303344
0.0227709
0.0273591
0.0905487
0.0525976
0.0317053
0.024103
0.0300342
0.0931205
0.0544214
0.0329009
0.0252657
0.0321451
0.0955448
0.0563146
0.0339954
0.0261872
0.0335302
0.0976987
0.0580109
0.0351907
0.0272475
0.035253
0.099774
0.0598664
0.0364951
0.0278973
0.0356653
0.101555
0.0613947
0.0372707
0.0279529
0.0355719
0.103335
0.0631512
0.0383074
0.0288664
0.0366174
0.104391
0.0643105
0.0391957
0.0294971
0.0378029
0.10632
0.0660955
0.0403405
0.0303882
0.0388545
0.107507
0.0673422
0.0415627
0.0315448
0.0404393
0.108448
0.0682723
0.0427858
0.0328698
0.0422744
0.10953
0.0693814
0.0442178
0.0343578
0.0442099
0.110491
0.0706058
0.0457999
0.0359901
0.0463394
0.111577
0.0719478
0.047348
0.0374777
0.0483722
0.112422
0.0732064
0.0489335
0.0392661
0.0507486
0.11308
0.0742802
0.0501749
0.0407369
0.0524544
0.113428
0.0751013
0.0514812
0.0422602
0.0545624
0.114519
0.0756499
0.0518445
0.0427057
0.0557549
0.120477
0.0786138
0.0535665
0.0440219
0.0574043
0.119951
0.0796916
0.0552403
0.0457889
0.0595076
0.11843
0.0796949
0.0561873
0.0471917
0.0616825
0.117178
0.0795112
0.0564322
0.0479134
0.0623979
0.116208
0.0791475
0.0567184
0.0483438
0.0628725
0.11559
0.0787702
0.0565859
0.0484026
0.0637859
0.115261
0.0783326
0.0564844
0.0485279
0.0641619
0.115428
0.0784315
0.0565955
0.0485591
0.0643112
0.115332
0.0783502
0.0565315
0.0486042
0.0643594
0.114926
0.07801
0.0561724
0.0482951
0.0637437
)
;
    }
    walls
    {
        type            epsilonWallFunction;
        Cmu             0.09;
        kappa           0.41;
        E               9.8;
        value           nonuniform List<scalar> 
250
(
0.0047612
0.00477086
0.00477497
0.004773
0.00478079
0.00495239
0.00492409
0.00494153
0.00495133
0.00496139
0.00510276
0.0050289
0.00503046
0.00504118
0.00506136
0.00516313
0.00513645
0.00512759
0.00510828
0.00512632
0.0051898
0.00519221
0.00519635
0.00516831
0.00516386
0.00523719
0.00521713
0.00524979
0.00524627
0.0052216
0.00534464
0.00527499
0.0052861
0.00528067
0.00533003
0.00553695
0.00541292
0.00536168
0.00534495
0.00536725
0.00571222
0.00556654
0.00547471
0.00545384
0.00542444
0.00593976
0.00574541
0.00562079
0.00559758
0.00553865
0.00619427
0.00598869
0.00581714
0.00573909
0.0056538
0.00639926
0.00625175
0.00604451
0.00590762
0.00573551
0.00653396
0.00648498
0.0062738
0.0061048
0.00580072
0.00669756
0.00664686
0.00646387
0.0062848
0.00591416
0.00701551
0.00697887
0.00680094
0.00659059
0.00615577
0.00779529
0.00763394
0.00745254
0.00722359
0.00677476
0.0095301
0.00913889
0.00886741
0.00854227
0.0082454
0.0127458
0.0120013
0.011484
0.0112748
0.0111588
0.0167456
0.0157518
0.0151421
0.014784
0.0147905
0.0213148
0.0200467
0.019229
0.0192573
0.0192149
0.0251618
0.0238289
0.0233643
0.0227665
0.0228979
0.028604
0.0271328
0.0265559
0.0263654
0.0261142
0.0313895
0.0298056
0.0289876
0.0289224
0.028679
0.0335105
0.0319289
0.0310475
0.0309933
0.0307797
0.0350179
0.0333764
0.0323852
0.0322802
0.0320425
0.0366102
0.0350315
0.0340536
0.0337808
0.0338958
0.0374106
0.0360132
0.0350023
0.0349241
0.03392
0.0370101
0.0356912
0.0349541
0.0345447
0.0341338
0.0380601
0.0366972
0.0359017
0.0354248
0.0351746
0.0390952
0.0376478
0.0368581
0.0364077
0.0365106
0.0402184
0.0386811
0.0378144
0.0376706
0.0374906
0.04187
0.0403285
0.0393764
0.0392783
0.0390087
0.0436618
0.0422574
0.0412833
0.0409773
0.0408869
0.0455826
0.0440722
0.0431223
0.0431031
0.0428372
0.0477382
0.0459072
0.0449866
0.0451089
0.0449406
0.0498224
0.0476635
0.0469087
0.0469543
0.0469219
0.0521623
0.0499594
0.0491595
0.0493041
0.0493348
0.0538736
0.0515723
0.050885
0.0509705
0.0510353
0.0559078
0.053829
0.0530114
0.05311
0.0532169
0.0570383
0.0550502
0.0544236
0.0544638
0.0544715
0.0586031
0.0566535
0.0561147
0.0561415
0.0562055
0.0608928
0.0588272
0.0582448
0.05813
0.0581224
0.0629399
0.0610258
0.060144
0.0603834
0.0604251
0.0638266
0.0623737
0.0616036
0.0607682
0.0609692
0.064245
0.0624391
0.0615867
0.0612552
0.0615
0.0650922
0.0626291
0.06229
0.0623694
0.0624796
0.0657208
0.0636944
0.0622782
0.0621584
0.062603
0.0651745
0.063301
0.062672
0.0623454
0.0634479
0.0652253
0.0639128
0.0624375
0.0624178
0.0634935
0.0648916
0.0628468
0.0622177
0.0621958
0.0625958
)
;
    }
}


// ************************************************************************* //
