/*--------------------------------*- C++ -*----------------------------------*\
| =========                 |                                                 |
| \\      /  F ield         | OpenFOAM: The Open Source CFD Toolbox           |
|  \\    /   O peration     | Version:  4.1                                   |
|   \\  /    A nd           | Web:      www.OpenFOAM.org                      |
|    \\/     M anipulation  |                                                 |
\*---------------------------------------------------------------------------*/
FoamFile
{
    version     2.0;
    format      ascii;
    class       volScalarField;
    location    "100";
    object      k;
}
// * * * * * * * * * * * * * * * * * * * * * * * * * * * * * * * * * * * * * //

dimensions      [0 2 -2 0 0 0 0];

internalField   nonuniform List<scalar> 
1600
(
0.00389269
0.00404388
0.00416273
0.00423279
0.00428509
0.00429541
0.00431774
0.0043731
0.0047082
0.0221101
0.061154
0.0842212
0.100877
0.114211
0.125035
0.133198
0.139458
0.144104
0.148284
0.151159
0.155164
0.158161
0.160654
0.162874
0.16487
0.166549
0.168134
0.168941
0.170293
0.170485
0.172322
0.173085
0.173156
0.174116
0.174711
0.175363
0.175715
0.175754
0.176147
0.17713
0.183549
0.182454
0.18055
0.178982
0.17781
0.177076
0.176614
0.176729
0.176596
0.17611
0.00389511
0.00403312
0.00415216
0.00422793
0.00427883
0.00428994
0.0043121
0.00436746
0.0047486
0.0223178
0.0609994
0.08402
0.100668
0.113993
0.124747
0.132884
0.139131
0.143775
0.147951
0.150822
0.154826
0.157849
0.160348
0.162569
0.164572
0.166252
0.167841
0.16865
0.170007
0.170195
0.172021
0.172786
0.172846
0.173814
0.174418
0.175078
0.175436
0.175475
0.17587
0.176853
0.183581
0.182172
0.180273
0.178709
0.177538
0.176804
0.17634
0.176455
0.176321
0.175835
0.00389529
0.00403484
0.00414247
0.00422507
0.00427821
0.00429032
0.0043131
0.00436785
0.00470583
0.0224381
0.0608427
0.0838644
0.100502
0.113798
0.124552
0.132713
0.138965
0.143619
0.147819
0.1507
0.154649
0.157683
0.160195
0.162431
0.164448
0.166133
0.167731
0.168542
0.169904
0.170091
0.171915
0.172687
0.172744
0.173715
0.174319
0.174982
0.175342
0.175382
0.17578
0.176759
0.183414
0.18209
0.180186
0.178623
0.177452
0.176718
0.176253
0.176368
0.176235
0.175748
0.00389371
0.00403773
0.00413909
0.00421214
0.00427141
0.00428504
0.00430787
0.00436298
0.00470127
0.0220985
0.0607121
0.0838134
0.100482
0.113782
0.124592
0.132786
0.139052
0.143708
0.147933
0.150831
0.154758
0.157766
0.160287
0.162536
0.164555
0.166244
0.167844
0.168655
0.170018
0.170206
0.172033
0.172803
0.172869
0.173838
0.174442
0.175103
0.175461
0.175502
0.175898
0.176876
0.183239
0.182209
0.180305
0.17874
0.17757
0.176835
0.176371
0.176486
0.176353
0.175866
0.00389114
0.00404455
0.00415074
0.00421284
0.00426932
0.00428162
0.00430361
0.00435818
0.00473361
0.0218984
0.0609428
0.0841031
0.100792
0.114156
0.125028
0.133206
0.139463
0.144102
0.148311
0.151206
0.155178
0.158167
0.160669
0.162903
0.164907
0.166592
0.168184
0.168992
0.170345
0.170537
0.172373
0.173134
0.173209
0.174168
0.174767
0.175422
0.175776
0.175818
0.17621
0.177192
0.1835
0.182526
0.180615
0.179046
0.177873
0.177139
0.176678
0.176792
0.176659
0.176174
0.00409943
0.00410161
0.00411158
0.00413376
0.00415419
0.00416487
0.00416294
0.00416581
0.00418303
0.00502055
0.0112521
0.0248855
0.0398218
0.0537579
0.0660862
0.0760103
0.0851035
0.0917546
0.0975623
0.101983
0.106013
0.108884
0.111235
0.113269
0.114895
0.116535
0.118126
0.118238
0.120255
0.120558
0.122731
0.124072
0.124638
0.125534
0.126562
0.127729
0.12875
0.128779
0.129803
0.13029
0.133577
0.134175
0.133939
0.133326
0.132554
0.132018
0.131338
0.131394
0.13125
0.130714
0.00409971
0.00409788
0.00410375
0.0041172
0.00413839
0.00415145
0.00416399
0.00417406
0.00418671
0.00519548
0.0106714
0.025017
0.0398054
0.0535039
0.0658853
0.0756887
0.0847488
0.0917928
0.0974982
0.101811
0.105994
0.108815
0.111223
0.113156
0.114957
0.1165
0.118126
0.118284
0.120219
0.120511
0.122621
0.123888
0.124414
0.125338
0.126422
0.127611
0.128613
0.128631
0.129646
0.130124
0.133576
0.133992
0.13375
0.133141
0.132369
0.131833
0.131146
0.131198
0.13105
0.130515
0.00410128
0.004098
0.00410305
0.00411272
0.00413322
0.0041528
0.00415924
0.00416546
0.00419156
0.00498695
0.011026
0.0252753
0.0395134
0.0532222
0.0655985
0.0757394
0.0846083
0.0917134
0.097623
0.101709
0.105928
0.10885
0.111071
0.113033
0.114955
0.11642
0.118141
0.118313
0.120307
0.120531
0.12252
0.123718
0.124241
0.125203
0.126323
0.127532
0.128541
0.128559
0.129583
0.130016
0.133446
0.133937
0.133679
0.133063
0.132294
0.13176
0.131068
0.131113
0.130973
0.130435
0.00410327
0.00409974
0.00410466
0.00411455
0.00412404
0.00414257
0.00416654
0.0041758
0.00420062
0.00513272
0.0104486
0.024743
0.0394998
0.0531485
0.0654968
0.0760159
0.0848958
0.0915466
0.0976997
0.10183
0.105905
0.108901
0.110986
0.113091
0.114913
0.116411
0.118169
0.118282
0.120311
0.120495
0.12252
0.123797
0.124355
0.125286
0.126356
0.12754
0.128566
0.128591
0.129631
0.130061
0.133317
0.133996
0.133751
0.133136
0.132369
0.131833
0.131142
0.131194
0.131052
0.130512
0.00410146
0.00410021
0.0041082
0.00412913
0.00414345
0.00415136
0.00415623
0.0041652
0.00418212
0.00522962
0.0108381
0.0251877
0.0396166
0.0536051
0.0659554
0.0762537
0.0851778
0.0914686
0.0975958
0.101933
0.105914
0.108886
0.111042
0.113197
0.114872
0.116516
0.118279
0.118341
0.120351
0.120578
0.12272
0.124069
0.124652
0.125544
0.126555
0.127711
0.128737
0.128771
0.129805
0.130269
0.133481
0.134209
0.133956
0.133337
0.132569
0.132032
0.131351
0.13141
0.131257
0.130723
0.00468989
0.00472591
0.00485379
0.00497686
0.00501125
0.00502695
0.00507719
0.00519478
0.00530183
0.00549404
0.00584275
0.00698549
0.00982107
0.0164694
0.025803
0.034781
0.0445215
0.0526937
0.0600441
0.0657184
0.0699409
0.0725972
0.0743957
0.0758168
0.0770195
0.0784352
0.078956
0.0791094
0.0804808
0.0806557
0.0823615
0.0839647
0.0854409
0.0870695
0.0888201
0.0904681
0.0922086
0.0923277
0.0936826
0.0940791
0.096033
0.0975972
0.0978966
0.0978719
0.0978016
0.0977248
0.0971959
0.0973127
0.0972456
0.0967142
0.00468533
0.00469085
0.00474301
0.00488401
0.00498741
0.00504199
0.00509923
0.00519103
0.00529147
0.00547977
0.00587016
0.00704922
0.0100099
0.0168209
0.0261935
0.0353326
0.0444881
0.0527395
0.0602604
0.0661333
0.0700931
0.0726445
0.0744784
0.0759731
0.0771816
0.0786176
0.0791632
0.0792199
0.0806421
0.0809138
0.0825746
0.0842028
0.0855768
0.087126
0.0888509
0.0904979
0.092183
0.0922572
0.0935873
0.0939551
0.0959271
0.0974015
0.0976468
0.0976088
0.0975458
0.0974809
0.0969433
0.0971048
0.0969476
0.0964703
0.00468671
0.00469671
0.0047261
0.00479977
0.00497043
0.00504605
0.00508467
0.00516077
0.00524484
0.00540659
0.00575553
0.00686935
0.00955203
0.0172315
0.0264382
0.0355018
0.0448549
0.0530522
0.0603174
0.0660679
0.0702158
0.072849
0.074584
0.076125
0.0772741
0.0787371
0.0792175
0.0791795
0.0808021
0.0808808
0.0825284
0.0841716
0.0855204
0.0870408
0.0887218
0.090347
0.092002
0.0920729
0.0934541
0.0937506
0.0957147
0.0972467
0.0974795
0.0974002
0.0973559
0.0973347
0.0967732
0.0967889
0.0968132
0.0962955
0.00468505
0.00470814
0.0047418
0.00477353
0.00485044
0.00501586
0.00515876
0.00525736
0.00530986
0.00543385
0.00579492
0.0068824
0.00983287
0.016677
0.0258307
0.0349952
0.0444526
0.0526556
0.0602296
0.0660105
0.0702615
0.0731596
0.0748307
0.0762734
0.0773439
0.0787774
0.0792003
0.0791116
0.0807193
0.0807089
0.0824097
0.0840412
0.0853538
0.0868639
0.0885399
0.0901817
0.0918824
0.0919789
0.0934067
0.0936543
0.0955855
0.097221
0.0975063
0.0974318
0.0974093
0.0973476
0.0967978
0.0968932
0.0968712
0.096337
0.00468502
0.00472076
0.00479302
0.00482634
0.00484193
0.00489121
0.00499989
0.00513975
0.00522533
0.00538366
0.00569689
0.00699278
0.00941077
0.0171243
0.0261574
0.0353237
0.0446623
0.0528025
0.0602732
0.0658731
0.0702216
0.0730454
0.0747948
0.0762009
0.0773155
0.078654
0.079382
0.0790294
0.0806334
0.0806335
0.0824042
0.0839938
0.0853587
0.0869231
0.0886325
0.0902886
0.0920239
0.0921462
0.0935793
0.0938787
0.0958023
0.0974664
0.0977685
0.0977237
0.0976539
0.0976029
0.0970476
0.0972938
0.0970552
0.096581
0.00545422
0.00574759
0.00614632
0.00658147
0.00708276
0.0077961
0.00873622
0.00973363
0.0106697
0.0115246
0.0122374
0.0126692
0.0130042
0.0143894
0.0170659
0.0215488
0.0280786
0.0348514
0.0407148
0.0455197
0.0490018
0.0514806
0.0532944
0.0545783
0.0556626
0.0565718
0.0569857
0.0569874
0.0578492
0.0579764
0.0592052
0.0606128
0.0624398
0.0642246
0.0660298
0.0678367
0.0692312
0.070076
0.0714763
0.0719857
0.0730072
0.0746248
0.0756533
0.0758938
0.0759267
0.0759913
0.0760253
0.0759868
0.0760217
0.0756985
0.00560371
0.00580084
0.00628862
0.00713583
0.00777996
0.00844981
0.00936534
0.0103662
0.0112268
0.0119862
0.0126547
0.0130165
0.0134116
0.0144688
0.0169203
0.0211839
0.0269077
0.0327009
0.0379621
0.0422434
0.0452755
0.0474723
0.0489694
0.0501223
0.0510137
0.0520737
0.0521726
0.0521421
0.0530898
0.05309
0.0541878
0.0555474
0.0569318
0.0584116
0.0600319
0.0615369
0.0631973
0.0639668
0.0651453
0.0652399
0.0665717
0.0681976
0.0688575
0.0690677
0.0692841
0.069378
0.0694386
0.0696737
0.0693946
0.0690916
0.00559652
0.00576143
0.00608925
0.00676633
0.00773226
0.0084019
0.009213
0.0101705
0.0110771
0.0117632
0.0124387
0.012804
0.0131771
0.0140542
0.0161347
0.0202454
0.0263885
0.0320509
0.0376304
0.0419982
0.0449524
0.0473564
0.0488103
0.049871
0.0507623
0.051323
0.0515762
0.0516164
0.052303
0.0525125
0.0535778
0.0549274
0.0562815
0.0577306
0.0593267
0.060845
0.0625463
0.0633158
0.0645975
0.0646561
0.0659365
0.0675892
0.0685061
0.0684335
0.0686316
0.0690964
0.0687622
0.0688872
0.0690995
0.068438
0.00559369
0.00577668
0.00612577
0.00660038
0.00745401
0.00852486
0.00940387
0.0103505
0.0112736
0.0120412
0.012691
0.0129983
0.0133112
0.0139806
0.0156986
0.0195619
0.0260801
0.0322515
0.0376307
0.0419125
0.0450948
0.0473788
0.0488335
0.0499855
0.0507293
0.0514365
0.0517815
0.0513968
0.0519931
0.0521801
0.0532475
0.0545453
0.0558698
0.0573365
0.0589615
0.0605299
0.0623118
0.0631581
0.0644577
0.0645058
0.0658298
0.0674861
0.0685378
0.0683884
0.0688632
0.0687669
0.0687673
0.0689425
0.0691296
0.0684496
0.00559471
0.00581056
0.0062175
0.00666974
0.0072624
0.00810844
0.00907284
0.0100784
0.0110513
0.0119146
0.0126392
0.0129876
0.0131433
0.0135798
0.0150567
0.0193798
0.0259525
0.0323356
0.0378448
0.0423428
0.04534
0.0476704
0.0492384
0.0503739
0.0511911
0.0514287
0.0519684
0.0514451
0.0519473
0.0521314
0.0532154
0.0546324
0.0561101
0.0577046
0.0594374
0.0610657
0.0628775
0.0637406
0.0650525
0.0651419
0.0664409
0.0681022
0.069148
0.0691268
0.069289
0.0694588
0.0693704
0.069738
0.0694774
0.0690837
0.00683409
0.0070157
0.00715734
0.00721317
0.00723873
0.00728272
0.00738085
0.0075559
0.00771819
0.00792116
0.00814335
0.00832867
0.00843977
0.00856034
0.00878021
0.00930292
0.0104094
0.0124951
0.0149665
0.0176913
0.0198893
0.021816
0.0233078
0.0244441
0.025198
0.0260353
0.0261719
0.0262061
0.0266489
0.0270748
0.0275387
0.0282983
0.029097
0.0299164
0.030836
0.0317052
0.0327233
0.0334507
0.0343165
0.0347862
0.0354529
0.0363651
0.0372609
0.0377706
0.037995
0.0383297
0.0382687
0.0383122
0.0383279
0.0382332
0.00684335
0.00698896
0.00708801
0.00718841
0.00724046
0.00726404
0.00731763
0.00744278
0.00758598
0.0077479
0.00795714
0.00819494
0.00840737
0.00852756
0.00875526
0.00919871
0.010155
0.0120249
0.014378
0.0169789
0.0191781
0.0210552
0.0225102
0.0236627
0.024399
0.0252653
0.0255005
0.0255652
0.0259995
0.0264179
0.0268532
0.0275609
0.028427
0.0292686
0.0300925
0.0308173
0.0318014
0.032476
0.0334415
0.0339607
0.0346345
0.0355438
0.0364271
0.0370545
0.0371823
0.0371435
0.0373923
0.0374865
0.0375866
0.0374563
0.00684723
0.00700556
0.0070895
0.00718004
0.0072446
0.00729359
0.00732748
0.00739696
0.00750229
0.00763523
0.00780902
0.00801099
0.00822191
0.00837726
0.00861798
0.00906875
0.00997774
0.0117061
0.0139582
0.0167172
0.0188604
0.0207054
0.0220798
0.0232162
0.0239148
0.0247697
0.0250187
0.0251482
0.0255963
0.0260365
0.026454
0.0271261
0.0279806
0.0287947
0.0297633
0.030574
0.0315479
0.032251
0.0331665
0.033737
0.0344511
0.0352682
0.0362161
0.0364275
0.0366516
0.036931
0.0370555
0.037177
0.0374702
0.0370907
0.00684529
0.00701485
0.00709965
0.00716202
0.00721861
0.00729047
0.00732202
0.00738174
0.00748466
0.00761521
0.00773804
0.00788868
0.00807116
0.0082241
0.00844859
0.00888729
0.0097664
0.0114863
0.0139476
0.016348
0.0187477
0.0205697
0.0219626
0.023113
0.0237736
0.0247211
0.0248974
0.0249666
0.025361
0.0259453
0.0263337
0.0270147
0.0277921
0.0287018
0.0295948
0.0303434
0.031502
0.0322363
0.0331548
0.0337146
0.0344592
0.0352091
0.036234
0.0365577
0.0368492
0.0368995
0.037011
0.0373582
0.0371903
0.0371256
0.00685266
0.00702432
0.00711863
0.00717897
0.00721416
0.00726806
0.00736549
0.00740129
0.00745554
0.00756089
0.00766217
0.00773675
0.00780069
0.0078942
0.00807428
0.00850708
0.00948266
0.0114427
0.0137411
0.0164973
0.0186563
0.0205374
0.0219455
0.0231031
0.0237503
0.0246656
0.0247165
0.0248249
0.0252735
0.0258502
0.0263093
0.0269759
0.0277961
0.0286701
0.0296115
0.0304486
0.0315045
0.0322235
0.0331749
0.0337135
0.0344682
0.035253
0.0362378
0.0366653
0.0368712
0.0373621
0.0370739
0.0376341
0.0374686
0.0373408
0.00554965
0.00531914
0.00543883
0.00570723
0.00568194
0.00594982
0.00593841
0.00584056
0.00556423
0.00576936
0.00584918
0.00592062
0.00601075
0.00616917
0.00623859
0.00594744
0.00619063
0.00634014
0.00647065
0.0065459
0.00700197
0.00666094
0.00637643
0.00656818
0.00692815
0.0070372
0.00735453
0.00762967
0.00717468
0.00678863
0.00703847
0.00756483
0.00773682
0.00804394
0.00827248
0.00793139
0.00738221
0.00765544
0.00849396
0.00878848
0.00875994
0.00911264
0.00893222
0.00814091
0.00854762
0.00978131
0.0100902
0.00982519
0.0102168
0.00991766
0.00904582
0.00947453
0.0110148
0.01127
0.0109731
0.0113255
0.0108626
0.00992106
0.0103627
0.0120179
0.012254
0.0119094
0.012167
0.0116886
0.0107535
0.0111696
0.0128767
0.0130548
0.0126911
0.012928
0.0123676
0.0114854
0.0118324
0.0135534
0.0136937
0.0133548
0.0135574
0.0127514
0.0120483
0.0122831
0.0139118
0.0139713
0.013762
0.0138441
0.0131514
0.0125406
0.0130198
0.0141153
0.0141469
0.0140054
0.0140663
0.0146783
0.0141983
0.0155007
0.014835
0.0150803
0.0146253
0.0149872
0.0173779
0.0173135
0.0192413
0.0163572
0.0170846
0.016053
0.0169932
0.0226562
0.0221713
0.0252186
0.0198266
0.021207
0.0192455
0.0212738
0.0295852
0.0287956
0.0323217
0.0252879
0.0262774
0.0236587
0.0260927
0.0362132
0.0356593
0.0388205
0.0308868
0.0319156
0.0285793
0.0309445
0.0419284
0.0417031
0.044383
0.0359524
0.0368436
0.033147
0.0351583
0.0464558
0.0467237
0.048646
0.0401213
0.0408302
0.0370615
0.0385671
0.0494755
0.050382
0.0516257
0.043046
0.043447
0.0399391
0.0408846
0.0518057
0.0529258
0.0537893
0.0452203
0.0454731
0.0420118
0.0426627
0.0534393
0.0547325
0.05535
0.0467339
0.0469016
0.043485
0.0440104
0.0546629
0.0560775
0.0565522
0.0477529
0.0479305
0.0445658
0.0449349
0.0557347
0.0571951
0.057644
0.0486048
0.0488227
0.0454052
0.0458779
0.0569247
0.0582597
0.0587406
0.0491949
0.0494408
0.0462315
0.0461862
0.0573749
0.0589877
0.0589676
0.049224
0.0495288
0.046242
0.0463603
0.0570526
0.0588937
0.0589594
0.0492907
0.049006
0.0461853
0.0461363
0.0580978
0.0597066
0.0598426
0.0496692
0.0495955
0.0467818
0.047288
0.0581352
0.0601359
0.0599793
0.0496498
0.049719
0.0470598
0.0471026
0.0593144
0.0608823
0.0615178
0.0503816
0.0505614
0.0477877
0.0484821
0.0612015
0.0623158
0.0631946
0.0516299
0.0521427
0.0490954
0.0499689
0.0630257
0.0639917
0.0648472
0.0531416
0.0536933
0.0506247
0.0514856
0.0648398
0.0656792
0.0665314
0.0545821
0.0551769
0.0521608
0.053019
0.0666789
0.0673999
0.0682464
0.0560075
0.056641
0.0536966
0.0545978
0.0679723
0.0691905
0.0693514
0.057495
0.0575094
0.0553634
0.0558745
0.0699751
0.0704439
0.0712857
0.0584809
0.059249
0.0565765
0.0574335
0.0706388
0.0714934
0.071865
0.0594734
0.0598549
0.0577562
0.058208
0.0714821
0.072581
0.0725555
0.0604266
0.0603202
0.058766
0.0587891
0.071945
0.0730303
0.0730609
0.060711
0.0605797
0.0590151
0.0592983
0.0736226
0.0740405
0.0747583
0.0614071
0.0619719
0.0600059
0.0607654
0.0751731
0.0756176
0.076235
0.062793
0.063333
0.0614818
0.0621745
0.0758198
0.0766201
0.0768079
0.0638448
0.0638153
0.062611
0.0629269
0.0758983
0.0767492
0.0768117
0.0640013
0.0642095
0.0628287
0.0629251
0.0760146
0.0769013
0.0769228
0.0640043
0.0641159
0.0629579
0.0630979
0.0760207
0.07689
0.0768738
0.064149
0.064211
0.0631022
0.063181
0.0758738
0.0768375
0.0768288
0.0641978
0.064172
0.0632054
0.0633652
0.076039
0.0768525
0.076867
0.0642669
0.0643529
0.0631857
0.0632321
0.0760153
0.0768793
0.0768404
0.0643076
0.0640632
0.0632757
0.0631644
0.0752554
0.0764727
0.0761362
0.0639181
0.0635995
0.0630411
0.062715
)
;

boundaryField
{
    inlet
    {
        type            turbulentIntensityKineticEnergyInlet;
        intensity       0.05;
        value           nonuniform List<scalar> 
28
(
0.00381504
0.00381504
0.00381504
0.00381504
0.00381504
0.00410408
0.00410408
0.00410408
0.00410408
0.00410408
0.00468911
0.00468911
0.00468911
0.00468911
0.00468911
0.00531729
0.005567
0.005567
0.005567
0.005567
0.0067376
0.0067376
0.0067376
0.0067376
0.0067376
0.00583321
0.00583321
0.0053173
)
;
    }
    outlet
    {
        type            inletOutlet;
        inletValue      uniform 1;
        value           nonuniform List<scalar> 
28
(
0.17611
0.175835
0.175748
0.175866
0.176174
0.130714
0.130515
0.130435
0.130512
0.130723
0.0967142
0.0964703
0.0962955
0.096337
0.096581
0.0752554
0.0690916
0.068438
0.0684496
0.0690837
0.0382332
0.0374563
0.0370907
0.0371256
0.0373408
0.0761362
0.062715
0.0635995
)
;
    }
    side1
    {
        type            cyclicAMI;
        value           nonuniform List<scalar> 
400
(
0.00389191
0.00410044
0.00468745
0.00549895
0.00684337
0.00404421
0.00410091
0.00472334
0.00576764
0.00702001
0.00415674
0.00410989
0.00482341
0.00616898
0.00713798
0.00422281
0.00413145
0.0049016
0.00660958
0.00719607
0.00427721
0.00414882
0.00492659
0.00713996
0.00722644
0.00428851
0.00415811
0.00495908
0.00789555
0.00727539
0.00431068
0.00415958
0.00503854
0.0088434
0.00737317
0.00436564
0.00416551
0.00516726
0.00984341
0.0074786
0.0047209
0.00418257
0.00526358
0.0107912
0.00758687
0.0220043
0.00512509
0.00543885
0.0116488
0.00774102
0.0610484
0.0110451
0.00576982
0.0123654
0.00790276
0.0841621
0.0250366
0.00698914
0.0127705
0.00803271
0.100834
0.0397192
0.00961592
0.0130485
0.00812023
0.114184
0.0536815
0.0167968
0.0141317
0.00822727
0.125032
0.0660208
0.0259802
0.0164262
0.00842725
0.133202
0.076132
0.0350523
0.0208582
0.008905
0.13946
0.0851407
0.0445919
0.0274017
0.00994602
0.144103
0.0916116
0.0527481
0.0340504
0.0119689
0.148297
0.097579
0.0601586
0.039801
0.0143538
0.151183
0.101958
0.0657958
0.0445082
0.0170943
0.155171
0.105963
0.0700812
0.0478359
0.0192728
0.158164
0.108885
0.0728213
0.0502675
0.0211767
0.160662
0.111138
0.0745953
0.052003
0.0226267
0.162888
0.113233
0.0760089
0.0532397
0.0237736
0.164888
0.114883
0.0771675
0.0542389
0.0244742
0.166571
0.116525
0.0785446
0.0549342
0.0253504
0.168159
0.118203
0.079169
0.0553882
0.0254442
0.168966
0.118289
0.0790694
0.0552228
0.0255155
0.170319
0.120303
0.0805571
0.0559701
0.0259612
0.170511
0.120568
0.0806446
0.0561154
0.0264625
0.172348
0.122725
0.0823829
0.0572981
0.026924
0.17311
0.124071
0.0839792
0.0587087
0.0276371
0.173183
0.124645
0.0853998
0.0604245
0.0284466
0.174142
0.125539
0.0869963
0.0621487
0.0292932
0.174739
0.126558
0.0887263
0.0639308
0.0302237
0.175392
0.12772
0.0903784
0.0656809
0.0310769
0.175745
0.128744
0.0921163
0.0672083
0.0321139
0.175786
0.128775
0.092237
0.0680588
0.0328371
0.176179
0.129804
0.0936309
0.069431
0.0337457
0.177161
0.130279
0.0939789
0.0698067
0.0342499
0.183525
0.133529
0.0959177
0.0709165
0.0349606
0.18249
0.134192
0.0975318
0.072548
0.035809
0.180583
0.133948
0.0978326
0.073582
0.0367494
0.179014
0.133331
0.0977978
0.0737393
0.0372179
0.177842
0.132561
0.0977278
0.0738133
0.0374331
0.177107
0.132025
0.0976638
0.0739114
0.0378459
0.176646
0.131345
0.0971218
0.0739064
0.0376713
0.17676
0.131402
0.0973032
0.0739972
0.0379732
0.176628
0.131254
0.0971504
0.073938
0.0378983
0.176142
0.130718
0.0966476
0.0735924
0.037787
0.00556399
0.00565173
0.00566826
0.00583101
0.0058825
0.0058358
0.00623187
0.00638297
0.00629766
0.00666374
0.00690992
0.00683865
0.00720261
0.0075725
0.00746008
0.00798776
0.00855294
0.00836043
0.00897699
0.00973786
0.00953593
0.00996885
0.0108573
0.0106905
0.0109227
0.0118374
0.0116831
0.0117606
0.0126599
0.0125435
0.0124541
0.0133284
0.0132368
0.0128266
0.0136305
0.0135917
0.0131488
0.0137993
0.0137787
0.0143286
0.0145605
0.0144002
0.0166388
0.0163822
0.0159068
0.021613
0.0205741
0.0196718
0.0284285
0.0261649
0.0255181
0.0349786
0.032061
0.0313886
0.0406282
0.0371904
0.0366079
0.0451462
0.0413541
0.0408907
0.0481588
0.0441027
0.0438405
0.0504891
0.0462342
0.0460689
0.0521018
0.047711
0.0476014
0.0532973
0.0487768
0.0486607
0.054288
0.049643
0.0495006
0.0551748
0.0501293
0.0499686
0.0556535
0.0503738
0.0501745
0.0552672
0.0498508
0.0500369
0.0561395
0.0504101
0.0504582
0.0562236
0.0505546
0.0505093
0.0573725
0.0514806
0.0513631
0.0591099
0.053005
0.0526698
0.0608238
0.0545304
0.0541698
0.062568
0.0560524
0.0556637
0.0643733
0.0576096
0.0571955
0.0657733
0.0587412
0.0587317
0.0677153
0.0605058
0.0600037
0.0684425
0.0612007
0.0609514
0.069435
0.0619593
0.0620288
0.069779
0.0621599
0.0622457
0.071336
0.0635198
0.0631506
0.0729218
0.0649849
0.0646319
0.0736955
0.0656624
0.0656816
0.0737423
0.0659126
0.0657766
0.0738732
0.0659076
0.0658347
0.0739314
0.0660287
0.0659881
0.0738032
0.0659725
0.0659894
0.0740328
0.0662181
0.0661619
0.0739337
0.0659385
0.0660982
0.0732904
0.065499
0.0657073
)
;
    }
    side2
    {
        type            cyclicAMI;
        value           nonuniform List<scalar> 
250
(
0.00389191
0.00410044
0.00468745
0.00559708
0.00684337
0.00404421
0.00410091
0.00472334
0.00582986
0.00702001
0.00415674
0.00410989
0.00482341
0.00627184
0.00713798
0.00422281
0.00413145
0.0049016
0.00675796
0.00719607
0.00427721
0.00414882
0.00492659
0.0073474
0.00722644
0.00428851
0.00415811
0.00495908
0.00820456
0.00727539
0.00431068
0.00415958
0.00503854
0.00928115
0.00737317
0.00436564
0.00416551
0.00516726
0.0103491
0.0074786
0.0047209
0.00418257
0.00526358
0.0113181
0.00758687
0.0220043
0.00512509
0.00543885
0.0121626
0.00774102
0.0610484
0.0110451
0.00576982
0.0128553
0.00790276
0.0841621
0.0250366
0.00698914
0.0132133
0.00803271
0.100834
0.0397192
0.00961592
0.013451
0.00812023
0.114184
0.0536815
0.0167968
0.0143579
0.00822727
0.125032
0.0660208
0.0259802
0.0163344
0.00842725
0.133202
0.076132
0.0350523
0.0206676
0.008905
0.13946
0.0851407
0.0445919
0.0268566
0.00994602
0.144103
0.0916116
0.0527481
0.0330904
0.0119689
0.148297
0.097579
0.0601586
0.0385222
0.0143538
0.151183
0.101958
0.0657958
0.042936
0.0170943
0.155171
0.105963
0.0700812
0.0459423
0.0192728
0.158164
0.108885
0.0728213
0.0482206
0.0211767
0.160662
0.111138
0.0745953
0.0498082
0.0226267
0.162888
0.113233
0.0760089
0.050946
0.0237736
0.164888
0.114883
0.0771675
0.0518685
0.0244742
0.166571
0.116525
0.0785446
0.0524993
0.0253504
0.168159
0.118203
0.079169
0.0528426
0.0254442
0.168966
0.118289
0.0790694
0.0525389
0.0255155
0.170319
0.120303
0.0805571
0.0531856
0.0259612
0.170511
0.120568
0.0806446
0.0532917
0.0264625
0.172348
0.122725
0.0823829
0.0543166
0.026924
0.17311
0.124071
0.0839792
0.0558098
0.0276371
0.173183
0.124645
0.0853998
0.0574214
0.0284466
0.174142
0.125539
0.0869963
0.0590401
0.0292932
0.174739
0.126558
0.0887263
0.0607066
0.0302237
0.175392
0.12772
0.0903784
0.0621586
0.0310769
0.175745
0.128744
0.0921163
0.0637828
0.0321139
0.175786
0.128775
0.092237
0.0645882
0.0328371
0.176179
0.129804
0.0936309
0.0656356
0.0337457
0.177161
0.130279
0.0939789
0.0659183
0.0342499
0.183525
0.133529
0.0959177
0.0671491
0.0349606
0.18249
0.134192
0.0975318
0.0686886
0.035809
0.180583
0.133948
0.0978326
0.069572
0.0367494
0.179014
0.133331
0.0977978
0.06971
0.0372179
0.177842
0.132561
0.0977278
0.0697737
0.0374331
0.177107
0.132025
0.0976638
0.069882
0.0378459
0.176646
0.131345
0.0971218
0.0698354
0.0376713
0.17676
0.131402
0.0973032
0.0700205
0.0379732
0.176628
0.131254
0.0971504
0.0698942
0.0378983
0.176142
0.130718
0.0966476
0.0694402
0.037787
)
;
    }
    walls
    {
        type            kqRWallFunction;
        value           nonuniform List<scalar> 
250
(
0.00683409
0.00684335
0.00684723
0.00684529
0.00685266
0.0070157
0.00698896
0.00700556
0.00701485
0.00702432
0.00715734
0.00708801
0.0070895
0.00709965
0.00711863
0.00721317
0.00718841
0.00718004
0.00716202
0.00717897
0.00723873
0.00724046
0.0072446
0.00721861
0.00721416
0.00728272
0.00726404
0.00729359
0.00729047
0.00726806
0.00738085
0.00731763
0.00732748
0.00732202
0.00736549
0.0075559
0.00744278
0.00739696
0.00738174
0.00740129
0.00771819
0.00758598
0.00750229
0.00748466
0.00745554
0.00792116
0.0077479
0.00763523
0.00761521
0.00756089
0.00814335
0.00795714
0.00780902
0.00773804
0.00766217
0.00832867
0.00819494
0.00801099
0.00788868
0.00773675
0.00843977
0.00840737
0.00822191
0.00807116
0.00780069
0.00856034
0.00852756
0.00837726
0.0082241
0.0078942
0.00878021
0.00875526
0.00861798
0.00844859
0.00807428
0.00930292
0.00919871
0.00906875
0.00888729
0.00850708
0.0104094
0.010155
0.00997774
0.0097664
0.00948266
0.0124951
0.0120249
0.0117061
0.0114863
0.0114427
0.0149665
0.014378
0.0139582
0.0139476
0.0137411
0.0176913
0.0169789
0.0167172
0.016348
0.0164973
0.0198893
0.0191781
0.0188604
0.0187477
0.0186563
0.021816
0.0210552
0.0207054
0.0205697
0.0205374
0.0233078
0.0225102
0.0220798
0.0219626
0.0219455
0.0244441
0.0236627
0.0232162
0.023113
0.0231031
0.025198
0.024399
0.0239148
0.0237736
0.0237503
0.0260353
0.0252653
0.0247697
0.0247211
0.0246656
0.0261719
0.0255005
0.0250187
0.0248974
0.0247165
0.0262061
0.0255652
0.0251482
0.0249666
0.0248249
0.0266489
0.0259995
0.0255963
0.025361
0.0252735
0.0270748
0.0264179
0.0260365
0.0259453
0.0258502
0.0275387
0.0268532
0.026454
0.0263337
0.0263093
0.0282983
0.0275609
0.0271261
0.0270147
0.0269759
0.029097
0.028427
0.0279806
0.0277921
0.0277961
0.0299164
0.0292686
0.0287947
0.0287018
0.0286701
0.030836
0.0300925
0.0297633
0.0295948
0.0296115
0.0317052
0.0308173
0.030574
0.0303434
0.0304486
0.0327233
0.0318014
0.0315479
0.031502
0.0315045
0.0334507
0.032476
0.032251
0.0322363
0.0322235
0.0343165
0.0334415
0.0331665
0.0331548
0.0331749
0.0347862
0.0339607
0.033737
0.0337146
0.0337135
0.0354529
0.0346345
0.0344511
0.0344592
0.0344682
0.0363651
0.0355438
0.0352682
0.0352091
0.035253
0.0372609
0.0364271
0.0362161
0.036234
0.0362378
0.0377706
0.0370545
0.0364275
0.0365577
0.0366653
0.037995
0.0371823
0.0366516
0.0368492
0.0368712
0.0383297
0.0371435
0.036931
0.0368995
0.0373621
0.0382687
0.0373923
0.0370555
0.037011
0.0370739
0.0383122
0.0374865
0.037177
0.0373582
0.0376341
0.0383279
0.0375866
0.0374702
0.0371903
0.0374686
0.0382332
0.0374563
0.0370907
0.0371256
0.0373408
)
;
    }
}


// ************************************************************************* //
