/*--------------------------------*- C++ -*----------------------------------*\
| =========                 |                                                 |
| \\      /  F ield         | OpenFOAM: The Open Source CFD Toolbox           |
|  \\    /   O peration     | Version:  4.1                                   |
|   \\  /    A nd           | Web:      www.OpenFOAM.org                      |
|    \\/     M anipulation  |                                                 |
\*---------------------------------------------------------------------------*/
FoamFile
{
    version     2.0;
    format      ascii;
    class       volScalarField;
    location    "100";
    object      nut;
}
// * * * * * * * * * * * * * * * * * * * * * * * * * * * * * * * * * * * * * //

dimensions      [0 2 -1 0 0 0 0];

internalField   nonuniform List<scalar> 
1600
(
0.000616597
0.000647152
0.000667132
0.000682464
0.000693186
0.000689439
0.000676812
0.000681374
0.000723829
0.00323921
0.0084629
0.0114961
0.0137405
0.0157757
0.0178995
0.0200317
0.0219656
0.0234978
0.0248534
0.0259085
0.0271683
0.0283094
0.0295064
0.0307564
0.0321025
0.0335387
0.0351345
0.0367512
0.0388295
0.0408911
0.0438354
0.0461637
0.0471462
0.0473934
0.0477255
0.0490959
0.0512982
0.053749
0.0563347
0.058723
0.0623083
0.0634032
0.0641375
0.0647395
0.0652723
0.0657524
0.0661336
0.0665322
0.0668157
0.066907
0.000618095
0.000650379
0.000665097
0.000678481
0.000688775
0.000688151
0.00068993
0.000686327
0.00072899
0.00324435
0.00838934
0.011471
0.0137248
0.0157454
0.0178517
0.0199944
0.0219435
0.0235025
0.0248618
0.0259269
0.0271815
0.0283234
0.0295236
0.0307815
0.0321369
0.0335768
0.0351879
0.0368217
0.0389373
0.0410475
0.0440686
0.0462977
0.0465423
0.0465499
0.0472565
0.0490188
0.051423
0.0539186
0.0564577
0.0587769
0.0622763
0.0633444
0.0640793
0.0646768
0.0652083
0.065689
0.0660709
0.0664702
0.0667546
0.0668435
0.000620344
0.000653857
0.00067834
0.000690887
0.000703547
0.000697271
0.000696773
0.000700707
0.00074448
0.00331247
0.00839147
0.0114575
0.0137425
0.0157967
0.0179426
0.0200991
0.0220533
0.0235951
0.0249435
0.0260028
0.0272392
0.0283804
0.0295953
0.0308779
0.0322569
0.0337218
0.0353693
0.0370403
0.0392036
0.0413267
0.044169
0.0454912
0.0450631
0.0454229
0.0467943
0.0490807
0.0517416
0.054297
0.0568111
0.0590681
0.0624626
0.0635213
0.0642129
0.0647791
0.0652827
0.0657407
0.0661029
0.0664876
0.0667589
0.0668379
0.000619596
0.000644103
0.00068621
0.000696361
0.00070227
0.000698444
0.000684415
0.000686453
0.000727802
0.00319834
0.00830407
0.0113839
0.0136874
0.0157838
0.0179542
0.0201042
0.0220166
0.0235253
0.0248719
0.0259254
0.0271542
0.0282886
0.0294963
0.030769
0.0321294
0.0335721
0.0351865
0.0368004
0.03888
0.0408995
0.0437535
0.0458257
0.0464784
0.0468546
0.0474906
0.0490331
0.0513152
0.0538362
0.0564831
0.0588821
0.0623497
0.0635088
0.0642109
0.0647902
0.0652972
0.0657555
0.0661181
0.0665031
0.0667752
0.0668599
0.000620066
0.000641411
0.000671648
0.000691132
0.000691548
0.000682489
0.00068457
0.000685936
0.000732374
0.00316731
0.00838565
0.0114403
0.0137073
0.0157735
0.0179188
0.0200478
0.0219621
0.0234921
0.0248616
0.0259222
0.0271654
0.0283079
0.0295071
0.0307665
0.0321155
0.0335544
0.0351569
0.0367671
0.0388464
0.0409154
0.0439394
0.0464931
0.0479443
0.0483877
0.0485143
0.0495142
0.0514223
0.0537184
0.0562792
0.0586994
0.0623484
0.0634624
0.064194
0.0647971
0.0653235
0.0657954
0.0661687
0.0665609
0.0668384
0.0669294
0.000653997
0.000785781
0.000864101
0.000870201
0.000851472
0.000831764
0.00075209
0.000678943
0.000651623
0.000759333
0.00155415
0.00320443
0.005173
0.00750986
0.00997738
0.0109314
0.0123211
0.0142377
0.0169159
0.0199832
0.022464
0.0223203
0.0220833
0.022078
0.0222402
0.0226728
0.0232675
0.0236225
0.0246872
0.0254926
0.0269673
0.0284798
0.0299915
0.0317707
0.0337353
0.0358503
0.0379759
0.0396834
0.0419067
0.0439294
0.0464959
0.0480869
0.0494438
0.0504115
0.0511742
0.0519291
0.0524569
0.0530393
0.0534634
0.05359
0.000752705
0.000734542
0.000639995
0.000608498
0.00059782
0.000622235
0.00063628
0.00062196
0.00061414
0.000764695
0.00151623
0.00328767
0.00498541
0.00675073
0.00839567
0.0100368
0.0121689
0.0149484
0.01786
0.021032
0.0231913
0.0223198
0.0221242
0.0221264
0.0223664
0.0227513
0.0233606
0.023693
0.0247152
0.0255022
0.0269362
0.028405
0.0298895
0.0316572
0.0336188
0.0357293
0.0378404
0.0395401
0.0417493
0.0437692
0.0463522
0.0479348
0.0492988
0.0502853
0.0510514
0.0518147
0.0523489
0.0529391
0.0533758
0.0535082
0.000808383
0.000638648
0.00062699
0.00059306
0.000591656
0.000593123
0.000580323
0.000581471
0.000602912
0.000745398
0.00157268
0.00345353
0.00536198
0.00693882
0.00833077
0.00985258
0.011968
0.0146339
0.0173413
0.0200117
0.0234747
0.0233803
0.0229102
0.0226501
0.0226547
0.0228339
0.0233303
0.0236461
0.0246955
0.0254724
0.0269083
0.0283996
0.0299091
0.0316979
0.033671
0.0357967
0.0379268
0.0396327
0.0418471
0.0438525
0.046411
0.0480147
0.0493297
0.050312
0.0510687
0.0518266
0.0523609
0.0529364
0.0533737
0.0535147
0.000930375
0.000635148
0.00064423
0.000661084
0.000641271
0.000673945
0.000664605
0.000633133
0.000637504
0.000764033
0.00142759
0.00327192
0.00533972
0.00731801
0.00851695
0.00991085
0.0119761
0.0143727
0.0167873
0.0189466
0.0221474
0.0245036
0.0233086
0.0225864
0.0223189
0.0224786
0.0230106
0.0233759
0.0244751
0.025264
0.0267303
0.0282709
0.0298015
0.0315887
0.0335544
0.0356769
0.0378213
0.039537
0.0417723
0.0437986
0.046329
0.0479495
0.0493051
0.0502835
0.051055
0.0518249
0.0523686
0.0529595
0.053396
0.0535391
0.000703119
0.000636703
0.000589184
0.00063321
0.000650515
0.000645748
0.000609374
0.000829015
0.000685824
0.000791913
0.00147144
0.00318153
0.00492413
0.00680326
0.00844075
0.00983847
0.0117324
0.0140543
0.0166423
0.0190085
0.0216168
0.0223513
0.0219673
0.021809
0.0218583
0.0222789
0.0229226
0.0233416
0.024482
0.0253054
0.0268087
0.0283551
0.0298848
0.0316665
0.0336281
0.0357455
0.0378802
0.0395914
0.0418176
0.0438473
0.0464004
0.0480347
0.0493668
0.0503554
0.0511361
0.0519082
0.0524438
0.0530417
0.0534598
0.0535993
0.000673011
0.000632475
0.000636254
0.000621338
0.000605
0.000589335
0.000606982
0.00064373
0.000669381
0.000698207
0.000761899
0.000939104
0.00138476
0.00245297
0.00393652
0.00531213
0.00697619
0.00836593
0.00964298
0.0107032
0.0115527
0.0122411
0.012871
0.0135922
0.0145607
0.0160719
0.0180061
0.0194644
0.0196125
0.0192044
0.0195661
0.0202828
0.0212196
0.0223593
0.0236889
0.0251444
0.0267414
0.027763
0.0294187
0.0309642
0.0328393
0.0345032
0.0355873
0.0366664
0.0375187
0.0383683
0.0387445
0.0392187
0.0396138
0.0395596
0.000764542
0.000830017
0.000959644
0.000913249
0.000869958
0.000847144
0.000869496
0.00086278
0.000842865
0.000815662
0.000880376
0.00105746
0.00151129
0.00251028
0.00395269
0.00547222
0.00705827
0.00852438
0.00990056
0.0110211
0.0118391
0.0124503
0.0129689
0.0134635
0.0139562
0.014638
0.0153551
0.0161909
0.0174873
0.0182403
0.0192129
0.0201094
0.0210223
0.0221275
0.0234305
0.0248783
0.0264695
0.0275223
0.0291598
0.0306714
0.0325341
0.0341877
0.0352383
0.0363068
0.0371997
0.0380898
0.0384739
0.0391011
0.0395052
0.0395331
0.00104445
0.00107675
0.00115001
0.00114845
0.000990447
0.000866214
0.000811132
0.000782548
0.000738985
0.000749592
0.000815135
0.00100528
0.00138808
0.00254833
0.00401102
0.0054968
0.0071614
0.00872644
0.0101597
0.0114052
0.0123462
0.0130555
0.0136319
0.0141689
0.0146269
0.0151836
0.015579
0.0159815
0.0169339
0.0175108
0.0185481
0.0196201
0.020664
0.0218582
0.0232297
0.0247296
0.0263563
0.0274373
0.0290791
0.030594
0.032467
0.0341142
0.0351812
0.0362357
0.0371542
0.0380799
0.0385507
0.0390263
0.0394543
0.0395831
0.00113287
0.00103156
0.000963899
0.00099438
0.00102229
0.000930912
0.00083644
0.000909993
0.000785162
0.00078599
0.000854241
0.00103852
0.0015157
0.00256757
0.0040309
0.00553331
0.00719913
0.00874265
0.0102409
0.0115039
0.0125074
0.0133059
0.0139179
0.0144673
0.0149377
0.0154904
0.0158353
0.0161565
0.0170139
0.0174456
0.0184202
0.019478
0.020535
0.0217461
0.0231317
0.0246369
0.0262721
0.0273547
0.0290084
0.0305367
0.0323956
0.0340474
0.0351418
0.0362108
0.0371513
0.0380635
0.038537
0.0390835
0.0394575
0.0395902
0.000868724
0.000982751
0.000785217
0.000759375
0.000771602
0.000819222
0.000769922
0.000752779
0.000723
0.000759127
0.000789594
0.000981989
0.00134202
0.00250738
0.00394938
0.00553218
0.00732885
0.00901904
0.0106724
0.0120347
0.0131808
0.0140507
0.0146988
0.0152487
0.0157172
0.0162007
0.0165769
0.0167236
0.0174849
0.017825
0.0187386
0.0197181
0.0207677
0.0219818
0.0233618
0.0248511
0.0264664
0.027509
0.0291426
0.0306597
0.0325012
0.0341497
0.0352477
0.0363284
0.0372102
0.0382104
0.0385618
0.0392332
0.0394104
0.0395888
0.00115277
0.00193108
0.00255
0.00237972
0.00196176
0.00160205
0.00162947
0.00176722
0.00191024
0.0020782
0.00230423
0.00251336
0.00269862
0.00304399
0.00362781
0.00458598
0.00607319
0.00762491
0.00894708
0.0100191
0.0108105
0.0114126
0.0119222
0.0123321
0.0127134
0.0130672
0.013351
0.0137829
0.0144674
0.0149976
0.0160043
0.0169879
0.0177418
0.0182946
0.0185993
0.0191378
0.0196646
0.0199608
0.02079
0.0215105
0.0224244
0.0235708
0.0244205
0.0250617
0.0255504
0.0261454
0.0265085
0.0267822
0.0269967
0.0269264
0.000770805
0.000810282
0.000944259
0.0011237
0.00126003
0.00139438
0.0015696
0.00180112
0.00202955
0.00220105
0.00230879
0.00239375
0.00250609
0.00270908
0.00321824
0.00407024
0.00516382
0.00619441
0.00708312
0.00778951
0.00827332
0.00866076
0.00895763
0.00924388
0.00951359
0.00984735
0.0100162
0.0102114
0.0105911
0.0108083
0.0114042
0.0122229
0.0132605
0.0142528
0.0147402
0.0151001
0.0157349
0.0163698
0.0172795
0.01804
0.0190429
0.0201365
0.0207566
0.021214
0.0218289
0.0222301
0.0224332
0.0228547
0.0228081
0.0228137
0.00079334
0.000798125
0.000895846
0.00105877
0.00126984
0.00142543
0.00162177
0.00185153
0.00210195
0.00230685
0.00245754
0.00250288
0.00256105
0.00272134
0.00311167
0.00394196
0.00519288
0.0062314
0.00720962
0.00791135
0.00839123
0.00883756
0.00909398
0.00933939
0.00962471
0.00981598
0.0100839
0.0103111
0.0106377
0.0109167
0.0115348
0.0123352
0.0132363
0.0140661
0.0146699
0.015205
0.0159031
0.0165171
0.0173342
0.0180627
0.0190897
0.0201338
0.020866
0.0211412
0.0216741
0.022249
0.0223882
0.0226331
0.0228232
0.0227145
0.000793693
0.000813321
0.000876385
0.000999299
0.00121175
0.00143721
0.0016061
0.00178965
0.00199039
0.00219388
0.00239863
0.0025079
0.00255256
0.00265769
0.00299049
0.00376033
0.00512348
0.00629235
0.00725084
0.0079681
0.00850868
0.00892048
0.00924786
0.00954003
0.00980582
0.0100693
0.0103073
0.0104916
0.0108142
0.0110865
0.0116934
0.0124561
0.0133375
0.0142396
0.0149501
0.0155141
0.0161791
0.0167439
0.0174936
0.0181746
0.0191688
0.0201677
0.0209108
0.0211499
0.021857
0.0220648
0.0223257
0.0226864
0.0229352
0.0226872
0.00080744
0.000835369
0.000898443
0.000975332
0.00110513
0.0013091
0.00156216
0.00179259
0.0019849
0.00219443
0.00242705
0.00257763
0.00263191
0.00268226
0.00294152
0.00378206
0.00509297
0.00637333
0.00744218
0.00827108
0.00881354
0.00924946
0.00963333
0.00993717
0.0102249
0.0103233
0.0106067
0.0107258
0.0109894
0.0112209
0.0117689
0.0124432
0.0131548
0.0138694
0.0145602
0.0152327
0.0159753
0.0165349
0.017256
0.0179076
0.0188549
0.0198408
0.0206003
0.0209622
0.0214611
0.0220133
0.0222753
0.0226809
0.0226907
0.0226601
0.000207812
0.000218879
0.000226757
0.000231116
0.000233805
0.000236437
0.000240695
0.000246217
0.000251368
0.000259375
0.000268144
0.000274731
0.000278473
0.000281699
0.000287865
0.00030393
0.00033814
0.000402797
0.000479877
0.00056517
0.000634722
0.000696421
0.000745015
0.000783258
0.000809796
0.000839285
0.000845487
0.000852763
0.000869673
0.000886123
0.000903608
0.000930484
0.00095839
0.000986477
0.00101735
0.00104622
0.00107944
0.00110331
0.00113065
0.00114592
0.00116714
0.00119455
0.00122209
0.0012391
0.00124656
0.00125652
0.0012515
0.00125568
0.00125614
0.00125382
0.000208332
0.000222305
0.00022951
0.000234697
0.000238342
0.000240025
0.000241957
0.000245554
0.00024912
0.00025375
0.000261535
0.000270524
0.000278477
0.000283339
0.000290438
0.000304469
0.000333259
0.000390899
0.00046384
0.000545437
0.000615437
0.000675996
0.000723771
0.000762616
0.00078858
0.000818695
0.000827607
0.00083541
0.000851827
0.000867897
0.000884246
0.000908796
0.000938591
0.000967953
0.000996408
0.00102113
0.00105351
0.00107599
0.00110682
0.00112357
0.00114436
0.00117213
0.00119867
0.00121847
0.00122357
0.00122134
0.00122677
0.00123234
0.00123363
0.00123316
0.000207707
0.000220012
0.000227861
0.000232638
0.000235805
0.000238593
0.000240805
0.000243345
0.000246277
0.0002494
0.000254386
0.000261206
0.000268886
0.000275129
0.000283784
0.000298933
0.000327337
0.000381308
0.000451001
0.00053885
0.000604815
0.000664289
0.000709834
0.000748223
0.000773216
0.000802804
0.000812401
0.000821515
0.000838688
0.000855582
0.000871532
0.000894961
0.000924259
0.000952357
0.000986382
0.00101366
0.0010457
0.00106889
0.00109859
0.00111704
0.00113927
0.00116347
0.00119386
0.00119639
0.00120567
0.00121396
0.00121908
0.00122233
0.0012351
0.00122087
0.000208115
0.000220827
0.00022889
0.000233985
0.000236951
0.000239641
0.000241566
0.00024493
0.000249297
0.000253098
0.000256251
0.000260291
0.000266212
0.000271588
0.000279286
0.000293856
0.000321444
0.00037449
0.00045257
0.000525663
0.000603799
0.00066077
0.000706502
0.000745339
0.000769082
0.000802907
0.000808898
0.000817122
0.000832532
0.00085506
0.000868723
0.000892432
0.00091972
0.000950473
0.000980964
0.00100611
0.00104504
0.00106954
0.00109885
0.0011168
0.00114042
0.00116248
0.00119429
0.00120583
0.00121551
0.00121269
0.0012181
0.00123121
0.0012241
0.0012224
0.000206901
0.000219179
0.000227398
0.000232794
0.000236042
0.000238451
0.000240865
0.000242041
0.000245039
0.000249896
0.000253245
0.000255458
0.000256915
0.000259733
0.000265556
0.000280124
0.0003113
0.000372949
0.000444841
0.000531401
0.000599861
0.00066057
0.000706833
0.000745845
0.000769209
0.000800389
0.000806305
0.000813565
0.000830425
0.000851215
0.000868927
0.000892485
0.000920652
0.000950642
0.000982497
0.00101042
0.00104482
0.00106844
0.00109872
0.00111628
0.00114014
0.00116382
0.00119366
0.00120867
0.00121479
0.00123033
0.00121831
0.00123718
0.00123043
0.00122908
0.00183281
0.00100861
0.000741851
0.000940066
0.00111121
0.000809838
0.000945334
0.00233311
0.000927836
0.00119518
0.00143396
0.00125646
0.00114136
0.00119995
0.00273836
0.00150246
0.00170277
0.00123851
0.0012207
0.00122758
0.00123926
0.00233881
0.00182836
0.0016517
0.00122013
0.00123723
0.00126758
0.00128043
0.00199578
0.00179621
0.00174659
0.00119867
0.00120057
0.00132072
0.00134051
0.0016937
0.00184304
0.00176642
0.00125531
0.00129282
0.00141868
0.00145745
0.00168752
0.00190327
0.0019955
0.00138357
0.00145989
0.00153878
0.00157476
0.00179785
0.00220383
0.00248778
0.00158972
0.00165813
0.00174332
0.00177445
0.00194842
0.00256128
0.0024096
0.00179724
0.0018673
0.0019482
0.00197371
0.00213758
0.00248851
0.00249011
0.00200394
0.00208346
0.0021258
0.0021576
0.00235991
0.00263105
0.00264808
0.00221914
0.00228925
0.00229121
0.00232346
0.00255219
0.00279641
0.00278882
0.0023996
0.00244351
0.00244064
0.00247045
0.00272106
0.00285405
0.00291945
0.00254746
0.00256607
0.00257613
0.00260381
0.00306493
0.00303139
0.00332603
0.00279363
0.00285852
0.00277553
0.00285529
0.00368191
0.00348351
0.00394503
0.00323474
0.00342108
0.00310162
0.00330601
0.00487791
0.00439088
0.00518292
0.00416255
0.00452879
0.00379247
0.00428163
0.00647774
0.00575197
0.00661691
0.00566856
0.00586572
0.00466906
0.00519779
0.00804749
0.00708904
0.00794248
0.00706316
0.00724723
0.00554191
0.00599701
0.00938552
0.00834506
0.00909478
0.00823742
0.00837801
0.00628407
0.00663258
0.010444
0.00941559
0.0100144
0.00912575
0.00919365
0.00692391
0.00712684
0.011188
0.0102392
0.010677
0.00967958
0.00971263
0.00738931
0.00746649
0.0118259
0.0108315
0.0111983
0.0100982
0.0101074
0.00772861
0.00773676
0.0123763
0.0112883
0.0116245
0.0103873
0.0103904
0.00796547
0.00798109
0.0128209
0.0116691
0.0119792
0.0105672
0.0105732
0.00817606
0.00816281
0.0132728
0.0119907
0.0123169
0.0107497
0.010772
0.00838289
0.00838807
0.0137761
0.0122782
0.0126501
0.0108352
0.0108581
0.00863648
0.00852273
0.0141384
0.0124359
0.0127354
0.0108589
0.0108661
0.00864392
0.00860217
0.0144496
0.0125257
0.0129122
0.0109683
0.0108158
0.00873707
0.00869498
0.0151026
0.0126798
0.0131164
0.0111122
0.0109726
0.00903733
0.00897336
0.0155586
0.0128235
0.0133715
0.0112077
0.0112607
0.0092179
0.00910934
0.0163417
0.0130556
0.0137802
0.011516
0.0119401
0.00949475
0.00949687
0.0173006
0.0135339
0.0143884
0.0121332
0.0131277
0.0099315
0.00997597
0.0183963
0.0142616
0.0151364
0.0127056
0.0131119
0.0104738
0.0105012
0.0191616
0.0151659
0.0160039
0.0130358
0.012818
0.0110716
0.0110532
0.0199095
0.0161226
0.0171338
0.0132411
0.0130256
0.0116105
0.0116756
0.0203355
0.0173043
0.0181315
0.0137054
0.0133106
0.0123201
0.0122104
0.020942
0.0183755
0.0193241
0.0141018
0.0138996
0.0128791
0.0127206
0.0212215
0.0193004
0.0202083
0.01449
0.0143467
0.0133451
0.0131633
0.0217167
0.0204121
0.0212319
0.0150583
0.0146526
0.0138917
0.0136109
0.0222966
0.0214221
0.022267
0.0154885
0.0151448
0.0143306
0.0142388
0.0233178
0.0225704
0.0236563
0.0159651
0.0159785
0.0149642
0.015024
0.0241478
0.0238625
0.0248327
0.0167484
0.0165977
0.0157372
0.0157846
0.0247671
0.0248169
0.0256212
0.0172866
0.0170309
0.0163328
0.0164288
0.0252205
0.0254451
0.0261148
0.0176051
0.0174825
0.0166809
0.0166306
0.0257448
0.0260913
0.0266917
0.0177721
0.0177512
0.0170507
0.0171094
0.0262056
0.0266442
0.0270292
0.0181045
0.0180032
0.0173486
0.017379
0.0264631
0.0269799
0.0273018
0.0182667
0.018174
0.0175736
0.017653
0.0267894
0.0272485
0.0275017
0.018432
0.018426
0.0176564
0.0177876
0.0269554
0.0274396
0.0276054
0.0185696
0.0183046
0.0178326
0.0178202
0.0267701
0.0273591
0.0273583
0.018418
0.0183032
0.0178235
0.0177775
)
;

boundaryField
{
    inlet
    {
        type            calculated;
        value           nonuniform List<scalar> 
28
(
0.000602056
0.000603015
0.000604976
0.000604553
0.000605041
0.000707334
0.00067352
0.000647097
0.000729047
0.000661368
0.000655794
0.00108376
0.0011068
0.00110024
0.000852421
0.00119834
0.000770601
0.000794481
0.000797427
0.000805689
0.000222234
0.000221846
0.000221536
0.000221815
0.0002202
0.000942234
0.000857172
0.00123388
)
;
    }
    outlet
    {
        type            calculated;
        value           nonuniform List<scalar> 
28
(
0.0669127
0.066849
0.0668406
0.0668627
0.0669341
0.0536278
0.0535452
0.0535522
0.0535762
0.0536384
0.0395836
0.0395638
0.0396138
0.0396202
0.0396192
0.0267745
0.0228265
0.0227258
0.0226985
0.0226732
0.00125381
0.00123314
0.00122086
0.00122239
0.00122908
0.0273618
0.0177815
0.0183048
)
;
    }
    side1
    {
        type            cyclicAMI;
        value           nonuniform List<scalar> 
400
(
0.000618332
0.000678558
0.000770867
0.00104282
0.000207357
0.000644281
0.000711242
0.000807613
0.00158222
0.000219029
0.00066939
0.000726642
0.000710735
0.00202416
0.000227078
0.000686798
0.000751706
0.000690356
0.00193257
0.000231955
0.000692367
0.000750993
0.000688301
0.00168901
0.000234924
0.000685964
0.000738756
0.000704278
0.00150878
0.000237444
0.000680691
0.000680732
0.000688452
0.00160804
0.00024078
0.000683655
0.000753979
0.000698254
0.0017753
0.000244129
0.000728102
0.000668724
0.00069619
0.00193401
0.000248204
0.00320326
0.000775623
0.000728667
0.0021152
0.000254636
0.00842427
0.0015128
0.000775746
0.00234333
0.000260695
0.0114682
0.00319298
0.000960546
0.00253382
0.000265094
0.0137239
0.00504856
0.00136339
0.00267738
0.000267694
0.0157746
0.00715656
0.00248017
0.00292882
0.000270716
0.0179092
0.00920907
0.00394295
0.0034093
0.00027671
0.0200398
0.010385
0.00542215
0.00433002
0.000292027
0.0219638
0.0120267
0.00715252
0.0057611
0.00032472
0.023495
0.014146
0.00869249
0.00722642
0.000387873
0.0248575
0.0167791
0.0101577
0.00846793
0.000462359
0.0259153
0.0194958
0.0113689
0.00946257
0.000548285
0.0271669
0.0220404
0.0123667
0.0101747
0.000617291
0.0283086
0.0223358
0.0131459
0.0107238
0.000678495
0.0295067
0.0220253
0.0137849
0.0111935
0.000725924
0.0307615
0.0219435
0.0144204
0.0115696
0.000764551
0.032109
0.0220493
0.015139
0.0119211
0.000789503
0.0335465
0.0224758
0.0161363
0.0121936
0.000819837
0.0351457
0.023095
0.0172915
0.0124772
0.000825896
0.0367591
0.023482
0.018094
0.0128095
0.000833164
0.0388379
0.0245846
0.0185487
0.0133601
0.000850049
0.0409032
0.025399
0.0185147
0.0137951
0.000868669
0.0438874
0.026888
0.0191524
0.0146558
0.000886268
0.0463284
0.0284174
0.0200005
0.0155409
0.000911484
0.0475452
0.0299382
0.0209937
0.0162813
0.000939521
0.0478906
0.0317186
0.0221706
0.0168857
0.000968559
0.0481199
0.0336817
0.0235254
0.0173132
0.000999922
0.049305
0.0357979
0.0249977
0.0178945
0.00102832
0.0513602
0.037928
0.0266039
0.0184899
0.00106213
0.0537337
0.0396374
0.027636
0.01887
0.00108587
0.056307
0.0418621
0.0292807
0.0196648
0.00111469
0.0587112
0.0438883
0.030812
0.0203634
0.0011311
0.0623283
0.0464482
0.0326702
0.0212879
0.00115364
0.0634328
0.0480608
0.0343265
0.0223832
0.00117919
0.0641658
0.0494053
0.0354175
0.0232042
0.00120788
0.0647683
0.0503835
0.0364974
0.0237564
0.00122388
0.0652979
0.0511551
0.0373645
0.0242484
0.00123068
0.0657739
0.0519186
0.0382894
0.0248297
0.00124342
0.0661511
0.0524504
0.0386531
0.0251607
0.0012349
0.0665465
0.0530405
0.039226
0.0254764
0.00124643
0.0668271
0.0534616
0.0395121
0.0256257
0.00124328
0.0669182
0.0535946
0.0395742
0.0255681
0.00124145
0.00150634
0.00100599
0.00089413
0.00185624
0.00111061
0.00122663
0.00215254
0.00110908
0.00112073
0.00190469
0.00114652
0.00113534
0.0017122
0.00116751
0.00116627
0.00157125
0.00129846
0.00127394
0.00164761
0.00149532
0.00144543
0.00179617
0.0017047
0.00165999
0.00196004
0.00190803
0.00186224
0.00215568
0.0021219
0.00206991
0.00238129
0.00233698
0.00229115
0.00256029
0.00248996
0.00246126
0.00269268
0.00258887
0.00257671
0.00294309
0.00279747
0.00275505
0.00344617
0.00325498
0.00313318
0.004529
0.00427016
0.00403076
0.00603684
0.00559807
0.0054692
0.00751445
0.00694455
0.00682423
0.00876677
0.00805388
0.00796198
0.00975216
0.00887411
0.00882972
0.010432
0.00940122
0.00937962
0.0110056
0.00981023
0.00980423
0.0115029
0.0101282
0.0101261
0.0119028
0.0103529
0.010349
0.0123024
0.0105825
0.010568
0.0126768
0.0106729
0.0106579
0.0130139
0.0107762
0.0107715
0.0132639
0.0107846
0.0108843
0.013793
0.0109784
0.0110697
0.0141775
0.0112469
0.0112123
0.0148857
0.0118808
0.0116036
0.015754
0.0128906
0.0122406
0.0167274
0.0131268
0.0128612
0.0174766
0.0131822
0.0133245
0.0182063
0.0135571
0.013698
0.0187108
0.0139763
0.0142344
0.0193607
0.0146185
0.0147507
0.0197293
0.0151046
0.0151983
0.0202965
0.0155543
0.0158195
0.0208992
0.0161017
0.0163264
0.0218969
0.0169748
0.016966
0.0227765
0.017721
0.0178195
0.0234404
0.0182672
0.0184343
0.0238647
0.0186877
0.0187678
0.0243809
0.0190361
0.0190498
0.0248708
0.0193921
0.0194583
0.0251297
0.0195946
0.0196551
0.0254813
0.0198997
0.0199036
0.0255975
0.0198238
0.019997
0.0254615
0.0198122
0.0198873
)
;
    }
    side2
    {
        type            cyclicAMI;
        value           nonuniform List<scalar> 
250
(
0.000618332
0.000678558
0.000770867
0.00110892
0.000207357
0.000644281
0.000711242
0.000807613
0.00143816
0.000219029
0.00066939
0.000726642
0.000710735
0.00159143
0.000227078
0.000686798
0.000751706
0.000690356
0.00152164
0.000231955
0.000692367
0.000750993
0.000688301
0.00142816
0.000234924
0.000685964
0.000738756
0.000704278
0.00141045
0.000237444
0.000680691
0.000680732
0.000688452
0.00154745
0.00024078
0.000683655
0.000753979
0.000698254
0.00173296
0.000244129
0.000728102
0.000668724
0.00069619
0.00191543
0.000248204
0.00320326
0.000775623
0.000728667
0.00211526
0.000254636
0.00842427
0.0015128
0.000775746
0.00233768
0.000260695
0.0114682
0.00319298
0.000960546
0.00251059
0.000265094
0.0137239
0.00504856
0.00136339
0.00263284
0.000267694
0.0157746
0.00715656
0.00248017
0.00285444
0.000270716
0.0179092
0.00920907
0.00394295
0.00330846
0.00027671
0.0200398
0.010385
0.00542215
0.00428706
0.000292027
0.0219638
0.0120267
0.00715252
0.00571247
0.00032472
0.023495
0.014146
0.00869249
0.00712232
0.000387873
0.0248575
0.0167791
0.0101577
0.00830626
0.000462359
0.0259153
0.0194958
0.0113689
0.00922173
0.000548285
0.0271669
0.0220404
0.0123667
0.00983732
0.000617291
0.0283086
0.0223358
0.0131459
0.0103249
0.000678495
0.0295067
0.0220253
0.0137849
0.0107249
0.000725924
0.0307615
0.0219435
0.0144204
0.0110291
0.000764551
0.032109
0.0220493
0.015139
0.0113274
0.000789503
0.0335465
0.0224758
0.0161363
0.0115318
0.000819837
0.0351457
0.023095
0.0172915
0.0117391
0.000825896
0.0367591
0.023482
0.018094
0.0119125
0.000833164
0.0388379
0.0245846
0.0185487
0.0122736
0.000850049
0.0409032
0.025399
0.0185147
0.0125791
0.000868669
0.0438874
0.026888
0.0191524
0.0132248
0.000886268
0.0463284
0.0284174
0.0200005
0.0140743
0.000911484
0.0475452
0.0299382
0.0209937
0.0147124
0.000939521
0.0478906
0.0317186
0.0221706
0.0151761
0.000968559
0.0481199
0.0336817
0.0235254
0.0156504
0.000999922
0.049305
0.0357979
0.0249977
0.01616
0.00102832
0.0513602
0.037928
0.0266039
0.0167605
0.00106213
0.0537337
0.0396374
0.027636
0.0171821
0.00108587
0.056307
0.0418621
0.0292807
0.0177888
0.00111469
0.0587112
0.0438883
0.030812
0.0183764
0.0011311
0.0623283
0.0464482
0.0326702
0.019233
0.00115364
0.0634328
0.0480608
0.0343265
0.0201247
0.00117919
0.0641658
0.0494053
0.0354175
0.0207845
0.00120788
0.0647683
0.0503835
0.0364974
0.0212159
0.00122388
0.0652979
0.0511551
0.0373645
0.0216236
0.00123068
0.0657739
0.0519186
0.0382894
0.0220809
0.00124342
0.0661511
0.0524504
0.0386531
0.0223272
0.0012349
0.0665465
0.0530405
0.039226
0.0226319
0.00124643
0.0668271
0.0534616
0.0395121
0.0227013
0.00124328
0.0669182
0.0535946
0.0395742
0.022623
0.00124145
)
;
    }
    walls
    {
        type            nutkWallFunction;
        Cmu             0.09;
        kappa           0.41;
        E               9.8;
        value           nonuniform List<scalar> 
250
(
8.76648e-05
8.77188e-05
8.77414e-05
8.77301e-05
8.77731e-05
8.87171e-05
8.8563e-05
8.86586e-05
8.87121e-05
8.87666e-05
8.95274e-05
8.91318e-05
8.91403e-05
8.91984e-05
8.93068e-05
8.98445e-05
8.97039e-05
8.96564e-05
8.9554e-05
8.96504e-05
8.99892e-05
8.99989e-05
9.00222e-05
8.98752e-05
8.98501e-05
9.02375e-05
9.01321e-05
9.02987e-05
9.02811e-05
9.01548e-05
9.07886e-05
9.0434e-05
9.04893e-05
9.04586e-05
9.07027e-05
9.1762e-05
9.11344e-05
9.08787e-05
9.07936e-05
9.0903e-05
9.26534e-05
9.19279e-05
9.14651e-05
9.13673e-05
9.12055e-05
9.37541e-05
9.28155e-05
9.21989e-05
9.20889e-05
9.17896e-05
9.49415e-05
9.39476e-05
9.31478e-05
9.27617e-05
9.23469e-05
9.59186e-05
9.52147e-05
9.42362e-05
9.3579e-05
9.27548e-05
9.64986e-05
9.63298e-05
9.53571e-05
9.45577e-05
9.31027e-05
9.71234e-05
9.69539e-05
9.61726e-05
9.53687e-05
9.36088e-05
9.82506e-05
9.81234e-05
9.74203e-05
9.65444e-05
9.45743e-05
0.00010087
0.000100354
9.97066e-05
9.87939e-05
9.6848e-05
0.000106162
0.000104974
0.000104136
0.000103126
0.000101752
0.000115363
0.000113367
0.000111989
0.000111027
0.000110835
0.000125242
0.000122975
0.000121328
0.000121285
0.000120465
0.000135153
0.000132647
0.000131712
0.000130379
0.00013092
0.000142558
0.000140213
0.00013915
0.000138771
0.000138462
0.000148691
0.000146306
0.000145193
0.000144759
0.000144656
0.00015324
0.000150828
0.000149507
0.000149145
0.000149093
0.0001566
0.000154299
0.000152965
0.000152655
0.000152626
0.000158783
0.000156469
0.000155046
0.000154628
0.000154559
0.000161166
0.000158976
0.000157547
0.000157407
0.000157245
0.000161551
0.000159649
0.000158267
0.000157917
0.000157393
0.000161647
0.000159833
0.00015864
0.000158117
0.000157707
0.000162887
0.000161065
0.000159922
0.000159251
0.000159
0.000164068
0.000162241
0.00016117
0.000160912
0.000160643
0.000165343
0.000163455
0.000162342
0.000162006
0.000161937
0.000167407
0.000165404
0.000164209
0.000163902
0.000163795
0.000169545
0.000167753
0.000166547
0.000166035
0.000166046
0.000171705
0.000169999
0.000168739
0.000168491
0.000168406
0.000174091
0.000172164
0.000171303
0.000170861
0.000170905
0.000176312
0.000174043
0.000173415
0.000172818
0.000173091
0.000178871
0.000176555
0.000175912
0.000175795
0.000175802
0.000180673
0.000178253
0.000177689
0.000177652
0.00017762
0.000182791
0.00018065
0.000179971
0.000179943
0.000179992
0.000183928
0.000181924
0.000181376
0.000181322
0.000181319
0.000185527
0.000183561
0.000183117
0.000183137
0.000183159
0.000187689
0.000185743
0.000185085
0.000184944
0.000185049
0.000189784
0.000187835
0.000187338
0.00018738
0.000187389
0.000190964
0.000189304
0.000187836
0.000188142
0.000188394
0.00019148
0.000189601
0.000188362
0.000188824
0.000188876
0.000192248
0.000189511
0.000189015
0.000188942
0.000190019
0.000192108
0.000190089
0.000189306
0.000189202
0.000189349
0.000192208
0.000190307
0.000189589
0.00019001
0.000190648
0.000192244
0.000190538
0.000190269
0.000189619
0.000190266
0.000192027
0.000190237
0.000189388
0.000189469
0.000189969
)
;
    }
}


// ************************************************************************* //
