/*--------------------------------*- C++ -*----------------------------------*\
| =========                 |                                                 |
| \\      /  F ield         | OpenFOAM: The Open Source CFD Toolbox           |
|  \\    /   O peration     | Version:  4.1                                   |
|   \\  /    A nd           | Web:      www.OpenFOAM.org                      |
|    \\/     M anipulation  |                                                 |
\*---------------------------------------------------------------------------*/
FoamFile
{
    version     2.0;
    format      ascii;
    class       volScalarField;
    location    "100";
    object      p;
}
// * * * * * * * * * * * * * * * * * * * * * * * * * * * * * * * * * * * * * //

dimensions      [0 2 -2 0 0 0 0];

internalField   nonuniform List<scalar> 
1600
(
-0.134123
-0.136608
-0.138539
-0.138023
-0.138119
-0.137429
-0.135095
-0.132484
-0.126532
-0.12087
-0.115922
-0.111572
-0.107154
-0.101768
-0.0943854
-0.0855011
-0.0748236
-0.0630754
-0.0519262
-0.0420835
-0.0332643
-0.0255097
-0.0186182
-0.0122636
-0.0063438
-0.000877079
0.00445875
0.00916694
0.0138943
0.0179933
0.0220056
0.0256085
0.0288208
0.031597
0.0335276
0.0347464
0.0352342
0.0348905
0.0339186
0.0322959
0.0302848
0.0276576
0.0248127
0.0217804
0.0185817
0.0153121
0.0119762
0.00857173
0.00513326
0.00168743
-0.134214
-0.136619
-0.138629
-0.138175
-0.138225
-0.13749
-0.135096
-0.132482
-0.12653
-0.120755
-0.115747
-0.111491
-0.107185
-0.101866
-0.0945456
-0.0856352
-0.0749966
-0.0632495
-0.0520882
-0.0422585
-0.033502
-0.0257813
-0.0188944
-0.0125606
-0.00664732
-0.00119002
0.00413486
0.00883392
0.0135471
0.0176324
0.0216278
0.0252342
0.0284643
0.0312378
0.0331889
0.034437
0.0349386
0.0346223
0.0336658
0.0320789
0.0300649
0.0274976
0.0246795
0.0216695
0.0184932
0.0152428
0.0119239
0.00853132
0.00510565
0.0016678
-0.134195
-0.13661
-0.138607
-0.138168
-0.138202
-0.13746
-0.135107
-0.132461
-0.126484
-0.120475
-0.115502
-0.111285
-0.106985
-0.101738
-0.0944807
-0.0856178
-0.0749654
-0.0631825
-0.0519763
-0.0421084
-0.0333403
-0.0256044
-0.0186817
-0.0123112
-0.0063553
-0.000854823
0.00450791
0.00924941
0.0140068
0.0181346
0.0221704
0.0257947
0.0290072
0.0317444
0.0336643
0.0348822
0.0353399
0.0349808
0.0339748
0.0323489
0.030229
0.0276854
0.0248322
0.0217909
0.0185905
0.0153189
0.0119814
0.00857538
0.00513674
0.00169102
-0.134146
-0.136647
-0.13857
-0.13806
-0.138146
-0.13734
-0.134983
-0.132454
-0.126552
-0.120637
-0.115636
-0.111257
-0.106861
-0.101602
-0.0943542
-0.0855247
-0.0748326
-0.0630154
-0.0517772
-0.0418633
-0.033031
-0.0252502
-0.0183023
-0.0118989
-0.00591372
-0.000380601
0.00501096
0.00977903
0.014568
0.0187249
0.0227861
0.0264126
0.0295971
0.0323074
0.0341891
0.0353669
0.0357857
0.0353809
0.0343335
0.0326569
0.0304472
0.0279054
0.0250165
0.0219414
0.0187105
0.0154136
0.0120534
0.0086304
0.00517553
0.00171797
-0.134111
-0.136626
-0.138632
-0.138068
-0.138188
-0.13743
-0.135016
-0.132396
-0.126477
-0.120703
-0.115807
-0.111515
-0.107148
-0.101843
-0.0945146
-0.0856415
-0.0748997
-0.0630638
-0.0518284
-0.0419214
-0.0330492
-0.0252519
-0.0183172
-0.0119341
-0.00596805
-0.000453394
0.00491425
0.00966554
0.0144306
0.0185793
0.0226241
0.0262509
0.0294443
0.0321685
0.0340675
0.0352607
0.0356979
0.0353127
0.0342859
0.0326199
0.0305004
0.0278885
0.0250089
0.0219386
0.0187102
0.0154144
0.0120545
0.00863236
0.0051757
0.00171818
-0.0923218
-0.0951337
-0.0994168
-0.100663
-0.100581
-0.0991266
-0.0965053
-0.0932878
-0.0895624
-0.0840024
-0.0806014
-0.0771553
-0.0728285
-0.0678243
-0.0617178
-0.055066
-0.0475961
-0.0392358
-0.0310964
-0.023621
-0.0168411
-0.0107482
-0.00531653
-0.000432697
0.00413962
0.00834608
0.0124383
0.0160478
0.0196266
0.0227829
0.025788
0.028573
0.0310426
0.0330912
0.0345442
0.0354128
0.0356048
0.0351328
0.0340037
0.032365
0.0302875
0.0276767
0.0248227
0.0217799
0.0185821
0.0153034
0.0119647
0.00855971
0.00512035
0.00168077
-0.0921657
-0.0963232
-0.10074
-0.101394
-0.101352
-0.100132
-0.0972089
-0.0937317
-0.0896145
-0.0841601
-0.0806489
-0.0773908
-0.0733281
-0.0683402
-0.0622666
-0.0554795
-0.0480121
-0.0396053
-0.0314736
-0.0240283
-0.0171869
-0.0110813
-0.00566035
-0.00078363
0.00379637
0.00801868
0.0121281
0.0157414
0.0193135
0.0224327
0.0253969
0.0281382
0.0305761
0.0325996
0.0340478
0.034929
0.0351246
0.0346643
0.0335491
0.0319268
0.0298622
0.0273432
0.0245334
0.0215306
0.0183764
0.015136
0.0118352
0.00845627
0.00505
0.00162964
-0.0927088
-0.0962702
-0.100852
-0.101366
-0.102228
-0.10075
-0.0985956
-0.0948343
-0.0903186
-0.0847951
-0.08096
-0.0774548
-0.0733261
-0.0683925
-0.0623437
-0.0556981
-0.0481218
-0.0396442
-0.0314271
-0.0239409
-0.0171116
-0.0109682
-0.00549299
-0.000572806
0.00404691
0.00829809
0.0124394
0.0160873
0.0197152
0.0228851
0.025918
0.0287175
0.0311957
0.0332347
0.0346783
0.0355375
0.0356962
0.0351804
0.034018
0.0323004
0.0301579
0.027634
0.0247902
0.0217467
0.0185568
0.0152838
0.0119505
0.00854762
0.00511683
0.00167818
-0.0928353
-0.0959716
-0.101023
-0.101341
-0.101515
-0.0999837
-0.0974571
-0.0942612
-0.089963
-0.0842729
-0.0807779
-0.0772743
-0.0731503
-0.0683098
-0.0623792
-0.0558393
-0.0482257
-0.0396649
-0.0312995
-0.0236999
-0.0169091
-0.0107344
-0.00519926
-0.000240345
0.00440775
0.00867552
0.0128263
0.0164828
0.0201285
0.0233417
0.0263978
0.0292614
0.0317629
0.033799
0.035227
0.036063
0.0361928
0.0356421
0.0344487
0.0326975
0.0304759
0.027926
0.0250518
0.0219729
0.0187472
0.015441
0.0120738
0.00864689
0.00518531
0.00172952
-0.0928831
-0.0960768
-0.101286
-0.102793
-0.102229
-0.10094
-0.0980966
-0.0948036
-0.0905826
-0.0845441
-0.0811803
-0.0779406
-0.0738115
-0.0689019
-0.0627305
-0.0559478
-0.0481889
-0.0395094
-0.0310418
-0.0233565
-0.0165361
-0.0103804
-0.00487573
4.9849e-05
0.00466056
0.00888958
0.0129989
0.0166257
0.0202381
0.0234411
0.026483
0.0293278
0.0318218
0.033864
0.0352959
0.0361305
0.0362656
0.0357241
0.0345316
0.0328299
0.030646
0.0280235
0.0251427
0.0220572
0.0188179
0.0155006
0.0121208
0.00868492
0.00520957
0.00174536
-0.0165189
-0.0167053
-0.0158538
-0.0201682
-0.0249033
-0.0246596
-0.0248263
-0.0203539
-0.0176218
-0.0150165
-0.0120242
-0.00805906
-0.00390227
-0.00012896
0.00437093
0.00867984
0.0125079
0.0165619
0.019975
0.0228734
0.0251641
0.0270428
0.0286567
0.0300153
0.0312688
0.0323561
0.0334429
0.034323
0.0352373
0.0360242
0.0367358
0.0374449
0.0380732
0.0385188
0.0386132
0.0383673
0.0377032
0.0366099
0.0349978
0.0330389
0.0307171
0.0279617
0.0250092
0.0218938
0.0186453
0.0153391
0.0119834
0.00857113
0.00513127
0.00168084
-0.0157185
-0.0228022
-0.0197942
-0.021858
-0.0224792
-0.0232547
-0.0208998
-0.0173046
-0.0151692
-0.012203
-0.0102131
-0.0069763
-0.00336532
-0.000190229
0.00405098
0.00795197
0.0114544
0.0157021
0.0191129
0.0219424
0.024232
0.0261392
0.02777
0.0291267
0.0303748
0.0314376
0.0325171
0.033401
0.0343245
0.0350622
0.0357104
0.0363407
0.0369092
0.0373067
0.0373888
0.0371623
0.0365074
0.0354239
0.0338424
0.0319271
0.0296947
0.0270899
0.0242599
0.0212521
0.0181125
0.0149018
0.0116443
0.00829842
0.00494623
0.00155452
-0.0146928
-0.0182063
-0.0129562
-0.0121529
-0.0140436
-0.0155564
-0.0158607
-0.0144688
-0.0136565
-0.0110134
-0.0101694
-0.00554147
-0.00124645
0.00230597
0.0064816
0.0096006
0.0133623
0.0173134
0.0205398
0.0231933
0.0253736
0.0272306
0.0288391
0.0301798
0.031422
0.032483
0.0335487
0.034422
0.0353321
0.0360904
0.0367661
0.037468
0.0381012
0.0385408
0.038642
0.0383983
0.037692
0.0365081
0.0348646
0.032801
0.0303832
0.02773
0.0248295
0.0217442
0.0185308
0.0152465
0.0119145
0.00851531
0.00510122
0.00166576
-0.0148912
-0.0181705
-0.0142558
-0.0158637
-0.0176772
-0.0183494
-0.0189234
-0.0177278
-0.0178331
-0.0159617
-0.0120213
-0.00701586
-0.00325876
0.000810458
0.00514363
0.00888152
0.0130207
0.0172121
0.0207239
0.0235869
0.0258282
0.0276797
0.0293193
0.0306941
0.0319815
0.0330761
0.0341709
0.0350274
0.035921
0.03669
0.0373718
0.0381158
0.0387761
0.0392352
0.0393321
0.0390681
0.0383464
0.0371395
0.035475
0.0333445
0.0308806
0.0281794
0.0252283
0.0220963
0.0188304
0.0154986
0.0121116
0.00867826
0.00521003
0.00174805
-0.0141497
-0.0141882
-0.0143213
-0.0154411
-0.019969
-0.0206308
-0.019287
-0.0182991
-0.0162361
-0.0158122
-0.0113643
-0.00722058
-0.00318285
0.000772094
0.00545754
0.0096042
0.0137424
0.0179936
0.0216006
0.0245675
0.0268233
0.0286266
0.0301819
0.0314909
0.0327187
0.0337787
0.0348233
0.0356341
0.0364583
0.0372313
0.0379258
0.0386752
0.0393391
0.0398045
0.0399079
0.0396407
0.038904
0.037687
0.0359813
0.0338672
0.0314344
0.0286536
0.0256538
0.0224702
0.0191476
0.0157629
0.0123222
0.00884708
0.00532058
0.00182155
0.0739594
0.0788919
0.0854244
0.0894087
0.0860933
0.0784493
0.073036
0.0713881
0.0735587
0.0749168
0.075992
0.0765379
0.0766768
0.0763618
0.0763656
0.0753987
0.0735937
0.0711643
0.0688684
0.066892
0.0649904
0.0631558
0.0613985
0.0596826
0.0580598
0.0564742
0.0549833
0.0535662
0.0521992
0.051047
0.0498761
0.0487625
0.0476821
0.0466135
0.045357
0.0438945
0.0422557
0.0403868
0.0382304
0.035721
0.0330229
0.0300085
0.026781
0.0234125
0.0199542
0.016488
0.0129955
0.00949439
0.00595728
0.00246467
0.0984213
0.0697512
0.0681815
0.075963
0.0792123
0.0801593
0.08233
0.0892406
0.0967747
0.10208
0.101479
0.0997597
0.0965084
0.0918861
0.08861
0.087511
0.0808924
0.0784492
0.0755251
0.072896
0.0702603
0.0676611
0.0652634
0.0628798
0.0606743
0.0584559
0.0563732
0.0542428
0.0523472
0.0504571
0.048606
0.046817
0.0451712
0.0435854
0.0419662
0.0403391
0.0385639
0.0366195
0.0344127
0.0320997
0.0296348
0.0268983
0.0240156
0.0209783
0.017838
0.0146474
0.0114315
0.00812359
0.00483664
0.00149781
0.0996113
0.0709076
0.0739995
0.0815819
0.0896549
0.0952261
0.101071
0.105931
0.110149
0.113289
0.109977
0.107147
0.103762
0.0977662
0.0929064
0.0875353
0.0830624
0.0795621
0.0761556
0.0730951
0.070355
0.0678323
0.0655433
0.0632945
0.0612161
0.0591702
0.057244
0.0553373
0.0536156
0.0519881
0.0504009
0.0488929
0.0474563
0.0460072
0.0444434
0.0427876
0.0409262
0.0388023
0.0364549
0.0338684
0.0310609
0.0281194
0.0250699
0.0218846
0.0185979
0.0152693
0.011913
0.00851074
0.00510467
0.00166991
0.0993684
0.0717177
0.0674089
0.0769254
0.085635
0.091478
0.0956571
0.0989582
0.100839
0.102104
0.102903
0.103388
0.0997782
0.0965232
0.0924201
0.088018
0.0841914
0.0808515
0.0775602
0.0744628
0.0715438
0.0688803
0.0664657
0.0641449
0.0620086
0.0599501
0.0580067
0.0561036
0.0543805
0.0528094
0.0512706
0.0498583
0.0484661
0.0470347
0.0454612
0.043772
0.0418847
0.0397341
0.0373397
0.0346162
0.0317626
0.028766
0.0256098
0.0223349
0.0189705
0.0155794
0.012152
0.00870836
0.0052311
0.00175854
0.100398
0.0774399
0.0825521
0.0865531
0.0926839
0.0986524
0.105893
0.107487
0.10709
0.107864
0.107444
0.106257
0.10376
0.0995132
0.0957396
0.0903439
0.0852734
0.0810252
0.0774662
0.0744492
0.0716514
0.0690635
0.0666637
0.0643895
0.0623179
0.0603512
0.0585218
0.0567764
0.0551759
0.0538054
0.0524516
0.0511618
0.049863
0.0485207
0.0470037
0.0453081
0.0433571
0.0411127
0.0385821
0.035723
0.0328396
0.0297767
0.0265092
0.0231055
0.0196196
0.0161159
0.0125804
0.00904908
0.00545191
0.00189631
0.279229
0.286921
0.284352
0.2822
0.277221
0.271002
0.265126
0.255478
0.245268
0.235606
0.227027
0.217951
0.209113
0.20108
0.193439
0.186463
0.180409
0.174034
0.167794
0.161528
0.155104
0.14855
0.141764
0.13495
0.128083
0.121232
0.114398
0.107695
0.101081
0.0944883
0.0880889
0.0816995
0.075371
0.0692631
0.0633751
0.057809
0.0525739
0.0476405
0.0429702
0.0384107
0.0341936
0.0303565
0.0266082
0.022886
0.019262
0.0156982
0.0121867
0.00869449
0.00522679
0.0017467
0.292478
0.319812
0.316844
0.30664
0.296349
0.284892
0.272987
0.260378
0.248734
0.238623
0.23131
0.222875
0.213707
0.204938
0.195599
0.188329
0.184113
0.177775
0.171474
0.164946
0.158155
0.151202
0.144096
0.136949
0.129787
0.122644
0.115539
0.108548
0.101642
0.0947379
0.0879608
0.0812104
0.0746727
0.068399
0.0624174
0.056784
0.0516006
0.0468176
0.042377
0.0383186
0.0341795
0.0300595
0.0261877
0.022482
0.0188856
0.0153597
0.0118962
0.00845172
0.00507319
0.00165815
0.293773
0.308465
0.301553
0.292067
0.282029
0.272164
0.261954
0.251287
0.239877
0.23016
0.224673
0.217325
0.209979
0.203253
0.194981
0.187685
0.181871
0.175878
0.17015
0.164155
0.157704
0.151024
0.144123
0.137156
0.130142
0.123186
0.116222
0.109378
0.102595
0.0958518
0.0892347
0.0826657
0.0762327
0.0699778
0.063992
0.0582859
0.0529306
0.0478358
0.0430979
0.0388096
0.0346374
0.0304833
0.0265853
0.0228696
0.0192234
0.0156629
0.0121522
0.00866731
0.00521958
0.00173975
0.290387
0.305812
0.300328
0.292244
0.285883
0.277347
0.267892
0.258896
0.248714
0.238154
0.229434
0.220443
0.213034
0.204467
0.196731
0.189217
0.182334
0.17592
0.169711
0.163454
0.156924
0.150267
0.143397
0.136503
0.129567
0.122695
0.115824
0.109061
0.102345
0.0956803
0.0891631
0.0827497
0.0764012
0.0702191
0.0642965
0.0586544
0.0533549
0.0483092
0.0435875
0.0390511
0.0347686
0.03072
0.02685
0.023107
0.0194265
0.0158326
0.0122909
0.00877613
0.0052751
0.00178158
0.289357
0.304861
0.294528
0.287318
0.281006
0.276189
0.266474
0.256367
0.247642
0.237313
0.227601
0.218773
0.210625
0.202704
0.194137
0.187669
0.181726
0.176105
0.170339
0.164367
0.158031
0.151506
0.144682
0.137794
0.130838
0.123951
0.117056
0.11029
0.103552
0.0968608
0.0903986
0.0840193
0.0776129
0.0713799
0.0653625
0.0596272
0.054242
0.0491536
0.0443283
0.0395976
0.0352739
0.0312974
0.0274013
0.0235582
0.0198081
0.0161499
0.0125403
0.00898252
0.00541955
0.00186124
0.0806039
0.0717882
0.0775871
0.129681
0.125165
0.133534
0.116939
0.0796314
0.0724377
0.0705595
0.108106
0.104673
0.0970418
0.0918348
0.0817722
0.0721504
0.0714739
0.102521
0.10407
0.0882344
0.09138
0.0855558
0.0771972
0.078161
0.107502
0.112867
0.0896175
0.0946767
0.0822558
0.0802787
0.0807578
0.117585
0.122522
0.103575
0.113227
0.076664
0.0817933
0.0809759
0.128797
0.1317
0.114556
0.120355
0.0733464
0.0821406
0.0796322
0.138137
0.140655
0.125236
0.127266
0.0742181
0.082884
0.0815769
0.144197
0.146624
0.131828
0.132581
0.0759807
0.084296
0.0837
0.147589
0.148128
0.135292
0.134545
0.076767
0.0852157
0.084094
0.143915
0.143843
0.132692
0.131611
0.077561
0.0844991
0.0833904
0.14033
0.13929
0.129671
0.128188
0.0784041
0.0835678
0.0825168
0.135482
0.134276
0.12557
0.123485
0.0788025
0.0818079
0.0810887
0.129513
0.128576
0.120112
0.117391
0.0785973
0.0797162
0.0790794
0.123723
0.123201
0.114433
0.111902
0.0783711
0.0778324
0.0773075
0.117889
0.117518
0.109032
0.106815
0.0770318
0.0763743
0.0749048
0.111182
0.111362
0.103944
0.10153
0.0742595
0.072586
0.0710639
0.105949
0.105432
0.0988616
0.0964092
0.0716584
0.0700747
0.0687704
0.0994707
0.0992036
0.0936338
0.0915429
0.0692989
0.0678496
0.0665406
0.0943948
0.0942985
0.089545
0.0875708
0.0673265
0.0659396
0.0647088
0.090248
0.0902503
0.0860696
0.0842263
0.065481
0.0641047
0.0629169
0.0864657
0.0865396
0.0827895
0.0810077
0.0636767
0.0622971
0.0611293
0.0829474
0.0830686
0.0796493
0.0779203
0.0619651
0.0606084
0.0594196
0.0796248
0.0797858
0.0766926
0.0749631
0.0602955
0.0588918
0.0577138
0.0764357
0.0766284
0.0737544
0.0720624
0.0587374
0.0572798
0.0560576
0.0734208
0.0736485
0.0709917
0.0692719
0.0572298
0.0556153
0.0544091
0.0704972
0.0707624
0.0682106
0.0665159
0.0558376
0.0540538
0.0528039
0.06767
0.0679766
0.0655571
0.063814
0.0544478
0.052397
0.0511703
0.0649699
0.0653022
0.0628223
0.0611288
0.0532562
0.0509442
0.049635
0.0623587
0.0628255
0.0603352
0.058566
0.0520893
0.049438
0.0481538
0.0600556
0.0605135
0.0578245
0.0560976
0.0510931
0.0480119
0.0466044
0.0577648
0.0583345
0.055435
0.0536124
0.0501154
0.0465728
0.0451488
0.0555329
0.0561662
0.0530574
0.0512238
0.0491013
0.0452751
0.043807
0.0533232
0.054008
0.0507942
0.0489791
0.0479775
0.0440184
0.0424599
0.0511868
0.0518273
0.048639
0.0467997
0.0466192
0.0426625
0.0410353
0.0489372
0.0495075
0.0464479
0.0446028
0.0450321
0.0411899
0.0395538
0.0466118
0.0471028
0.0442662
0.0424529
0.0432042
0.039599
0.0379406
0.0442521
0.044606
0.0420874
0.0403044
0.0411138
0.0379057
0.0361728
0.041826
0.0420208
0.0399355
0.0381088
0.0386557
0.0358623
0.0341582
0.0392602
0.039207
0.0375445
0.0357675
0.0359896
0.0336843
0.0318253
0.0363496
0.0361972
0.0350222
0.0331442
0.0330284
0.0311486
0.0293073
0.0333135
0.032986
0.0321358
0.0303068
0.0297987
0.0283406
0.0265052
0.0301422
0.0296377
0.029133
0.0273069
0.0263856
0.0253497
0.0235535
0.026804
0.0261467
0.02597
0.0241688
0.0228501
0.0222117
0.0204549
0.0233457
0.0225689
0.0226639
0.0209053
0.0192644
0.0189833
0.0172759
0.0198564
0.0189869
0.0193189
0.0176058
0.0156901
0.0157071
0.014061
0.0163781
0.0154244
0.0159551
0.0142948
0.0121049
0.0124256
0.0107978
0.0128916
0.01187
0.0126018
0.010959
0.00852829
0.00905383
0.00747497
0.00941043
0.00832612
0.0091945
0.0075957
0.0049367
0.00572177
0.00413169
0.00590354
0.00477981
0.00582606
0.00421521
0.00132775
0.00228315
0.000773916
0.00244392
0.00117597
0.00238549
0.000835423
)
;

boundaryField
{
    inlet
    {
        type            zeroGradient;
    }
    outlet
    {
        type            fixedValue;
        value           uniform 0;
    }
    side1
    {
        type            cyclicAMI;
        value           nonuniform List<scalar> 
400
(
-0.134117
-0.0926024
-0.0153343
0.0823774
0.284293
-0.136617
-0.0956053
-0.0154468
0.0784296
0.295891
-0.138586
-0.100351
-0.0150875
0.0845099
0.28944
-0.138045
-0.101728
-0.0178046
0.0884995
0.284759
-0.138154
-0.101405
-0.0224362
0.0881917
0.279113
-0.137429
-0.100033
-0.0226452
0.0848818
0.273596
-0.135055
-0.0973009
-0.0220566
0.0834976
0.2658
-0.13244
-0.0940457
-0.0193265
0.0828816
0.255923
-0.126505
-0.0900725
-0.0169289
0.0842347
0.246455
-0.120787
-0.0842732
-0.0154144
0.0854068
0.23646
-0.115864
-0.0808909
-0.0116942
0.0860059
0.227314
-0.111543
-0.077548
-0.00763982
0.0860003
0.218362
-0.107151
-0.07332
-0.00354256
0.0853
0.209869
-0.101805
-0.0683631
0.000321567
0.083733
0.201892
-0.09445
-0.0622241
0.00491424
0.0825341
0.193788
-0.0855713
-0.0555069
0.00914202
0.0801571
0.187066
-0.0748616
-0.0478925
0.0131252
0.0773124
0.181067
-0.0630696
-0.0393726
0.0172777
0.0743039
0.175069
-0.0518773
-0.0310691
0.0207878
0.0716059
0.169067
-0.0420024
-0.0234887
0.0237204
0.0692981
0.162947
-0.0331568
-0.0166886
0.0259937
0.0671112
0.156568
-0.0253808
-0.0105643
0.0278347
0.0650368
0.150028
-0.0184677
-0.00509613
0.0294193
0.0630749
0.143223
-0.0120988
-0.000191424
0.0307531
0.0611812
0.136372
-0.00615592
0.00440009
0.0319938
0.0594155
0.12946
-0.000665236
0.00861783
0.0330674
0.0577086
0.122592
0.0046865
0.0127186
0.0341331
0.0561099
0.115727
0.00941624
0.0163368
0.0349786
0.0545883
0.108993
0.0141625
0.0199323
0.0358478
0.053147
0.102316
0.0182863
0.023112
0.0366278
0.0519253
0.0956745
0.0223148
0.0261355
0.0373308
0.0506961
0.0892437
0.0259297
0.0289504
0.0380601
0.0495264
0.0828594
0.0291326
0.0314322
0.0387061
0.0483765
0.076492
0.0318827
0.0334776
0.0391617
0.0472207
0.0703215
0.0337975
0.0349201
0.0392606
0.0458813
0.0643688
0.0350035
0.0357717
0.039004
0.0443446
0.0587181
0.0354661
0.0359352
0.0383036
0.0426064
0.053408
0.0351016
0.0354284
0.0371485
0.0406179
0.048397
0.0341023
0.0342677
0.0354895
0.0383424
0.0436492
0.0324579
0.0325974
0.033453
0.0357217
0.0390042
0.0303926
0.0304668
0.0310758
0.0329645
0.0347337
0.0277731
0.0278501
0.0283076
0.0299347
0.0308269
0.0249108
0.0249827
0.0253315
0.0266945
0.0270048
0.0218595
0.0219185
0.022182
0.0233147
0.0232221
0.0186459
0.0187
0.0188964
0.0198477
0.0195351
0.0153632
0.015402
0.015551
0.0163696
0.0159241
0.0120154
0.0120428
0.0121528
0.0128634
0.0123635
0.00860204
0.00862232
0.0087091
0.00935261
0.0088385
0.00515448
0.00516496
0.00522593
0.00579638
0.00532317
0.00170281
0.00171306
0.0017512
0.00228371
0.00180397
0.0869063
0.116587
0.119539
0.0789336
0.0952405
0.0974844
0.0820206
0.0966168
0.0956044
0.0858733
0.103753
0.100246
0.085576
0.112187
0.108961
0.0836649
0.120254
0.118356
0.0837091
0.128615
0.126969
0.0848105
0.133068
0.131482
0.0858856
0.133914
0.133561
0.0866679
0.131381
0.131428
0.0870754
0.12826
0.12894
0.0872723
0.124572
0.12536
0.0867489
0.119981
0.120593
0.0852567
0.114996
0.115338
0.0839011
0.109975
0.110217
0.0812702
0.104082
0.103965
0.0777662
0.0984497
0.0987881
0.0746407
0.0929073
0.0930819
0.0718993
0.0884685
0.0885314
0.0695943
0.0847774
0.084776
0.0674456
0.0813829
0.0813346
0.0653918
0.0782178
0.0781386
0.0634611
0.0752409
0.0751356
0.061599
0.0723893
0.0722634
0.0598774
0.069724
0.0695752
0.0582237
0.0671564
0.066983
0.0566922
0.0647018
0.0645014
0.0551892
0.0623492
0.062132
0.0538674
0.060176
0.0598709
0.0526357
0.0581901
0.0578908
0.0515256
0.0562969
0.0559246
0.0504486
0.0544328
0.0540189
0.0493438
0.0525723
0.0521247
0.0481504
0.050682
0.0502634
0.0467416
0.0486403
0.0482675
0.04512
0.0464812
0.0461603
0.0432529
0.0441734
0.0439421
0.0411134
0.0417063
0.0415789
0.0386323
0.0389906
0.0390253
0.0359047
0.0360329
0.0361326
0.0329683
0.0329353
0.0331493
0.0297917
0.0296858
0.0300156
0.026425
0.0262723
0.0267019
0.0229314
0.0227547
0.0232625
0.0193775
0.019206
0.0197744
0.0158257
0.0156639
0.0162873
0.0122563
0.0121161
0.0127838
0.00869411
0.00857653
0.00928527
0.00510074
0.0050126
0.00574711
0.00150877
0.00142546
0.00225425
)
;
    }
    side2
    {
        type            cyclicAMI;
        value           nonuniform List<scalar> 
250
(
-0.134117
-0.0926024
-0.0153343
0.101702
0.284293
-0.136617
-0.0956053
-0.0154468
0.0877072
0.295891
-0.138586
-0.100351
-0.0150875
0.0898224
0.28944
-0.138045
-0.101728
-0.0178046
0.0947482
0.284759
-0.138154
-0.101405
-0.0224362
0.098977
0.279113
-0.137429
-0.100033
-0.0226452
0.102156
0.273596
-0.135055
-0.0973009
-0.0220566
0.10616
0.2658
-0.13244
-0.0940457
-0.0193265
0.108568
0.255923
-0.126505
-0.0900725
-0.0169289
0.109909
0.246455
-0.120787
-0.0842732
-0.0154144
0.109196
0.23646
-0.115864
-0.0808909
-0.0116942
0.108011
0.227314
-0.111543
-0.077548
-0.00763982
0.106202
0.218362
-0.107151
-0.07332
-0.00354256
0.103515
0.209869
-0.101805
-0.0683631
0.000321567
0.100152
0.201892
-0.09445
-0.0622241
0.00491424
0.0969382
0.193788
-0.0855713
-0.0555069
0.00914202
0.0926126
0.187066
-0.0748616
-0.0478925
0.0131252
0.0882999
0.181067
-0.0630696
-0.0393726
0.0172777
0.0839274
0.175069
-0.0518773
-0.0310691
0.0207878
0.0803017
0.169067
-0.0420024
-0.0234887
0.0237204
0.077272
0.162947
-0.0331568
-0.0166886
0.0259937
0.0744661
0.156568
-0.0253808
-0.0105643
0.0278347
0.071832
0.150028
-0.0184677
-0.00509613
0.0294193
0.069353
0.143223
-0.0120988
-0.000191424
0.0307531
0.0669728
0.136372
-0.00615592
0.00440009
0.0319938
0.0647528
0.12946
-0.000665236
0.00861783
0.0330674
0.0626133
0.122592
0.0046865
0.0127186
0.0341331
0.0605872
0.115727
0.00941624
0.0163368
0.0349786
0.0586417
0.108993
0.0141625
0.0199323
0.0358478
0.0568336
0.102316
0.0182863
0.023112
0.0366278
0.0552208
0.0956745
0.0223148
0.0261355
0.0373308
0.0536632
0.0892437
0.0259297
0.0289504
0.0380601
0.0521511
0.0828594
0.0291326
0.0314322
0.0387061
0.0506409
0.076492
0.0318827
0.0334776
0.0391617
0.0491083
0.0703215
0.0337975
0.0349201
0.0392606
0.0474051
0.0643688
0.0350035
0.0357717
0.039004
0.0455431
0.0587181
0.0354661
0.0359352
0.0383036
0.0435055
0.053408
0.0351016
0.0354284
0.0371485
0.0412623
0.048397
0.0341023
0.0342677
0.0354895
0.0387531
0.0436492
0.0324579
0.0325974
0.033453
0.0359508
0.0390042
0.0303926
0.0304668
0.0310758
0.0330052
0.0347337
0.0277731
0.0278501
0.0283076
0.0298568
0.0308269
0.0249108
0.0249827
0.0253315
0.0265227
0.0270048
0.0218595
0.0219185
0.022182
0.0230646
0.0232221
0.0186459
0.0187
0.0188964
0.0195501
0.0195351
0.0153632
0.015402
0.015551
0.0160353
0.0159241
0.0120154
0.0120428
0.0121528
0.0125037
0.0123635
0.00860204
0.00862232
0.0087091
0.00897616
0.0088385
0.00515448
0.00516496
0.00522593
0.00541349
0.00532317
0.00170281
0.00171306
0.0017512
0.00186746
0.00180397
)
;
    }
    walls
    {
        type            zeroGradient;
    }
}


// ************************************************************************* //
