/*--------------------------------*- C++ -*----------------------------------*\
| =========                 |                                                 |
| \\      /  F ield         | OpenFOAM: The Open Source CFD Toolbox           |
|  \\    /   O peration     | Version:  4.1                                   |
|   \\  /    A nd           | Web:      www.OpenFOAM.org                      |
|    \\/     M anipulation  |                                                 |
\*---------------------------------------------------------------------------*/
FoamFile
{
    version     2.0;
    format      ascii;
    class       surfaceScalarField;
    location    "100";
    object      phi;
}
// * * * * * * * * * * * * * * * * * * * * * * * * * * * * * * * * * * * * * //

dimensions      [0 3 -1 0 0 0 0];

internalField   nonuniform List<scalar> 
4422
(
0.00154748
0.00256662
-3.34231e-06
0.00155075
0.00251758
-1.4408e-05
0.00155146
0.00243808
-1.99226e-05
0.00155191
0.00237251
-2.13045e-05
0.0015511
0.00231676
-1.81138e-05
0.0015486
0.0022797
-5.95557e-06
0.00154399
0.00230072
6.12813e-06
0.00153485
0.00233389
1.22645e-05
0.00152245
0.00236474
1.58146e-05
0.00150498
0.00219159
2.29419e-05
0.00148814
0.00208946
2.11632e-05
0.00147518
0.0020765
1.5711e-05
0.0014654
0.00206618
1.10157e-05
0.00146033
0.00203625
5.02503e-06
0.00146151
0.00198546
-2.36716e-06
0.00146838
0.0019123
-8.21509e-06
0.00147837
0.00182252
-1.11139e-05
0.00148911
0.00173066
-1.14283e-05
0.00149917
0.00163877
-1.05169e-05
0.00150797
0.00155336
-9.06424e-06
0.00151547
0.00146814
-7.68952e-06
0.00152171
0.00138609
-6.38226e-06
0.00152715
0.00130513
-5.64228e-06
0.00153202
0.00122456
-4.80024e-06
0.00153639
0.0011434
-4.26655e-06
0.00154032
0.00106207
-3.86922e-06
0.00154394
0.000979227
-3.42023e-06
0.00154723
0.000897045
-3.17777e-06
0.00155028
0.000812383
-2.83e-06
0.00155309
0.00073201
-2.71555e-06
0.00155567
0.000648545
-2.46608e-06
0.00155793
0.000569338
-2.29985e-06
0.00155995
0.00049378
-2.1682e-06
0.00156173
0.000422141
-1.73779e-06
0.0015632
0.000355843
-1.46164e-06
0.00156433
0.000295797
-1.27447e-06
0.0015652
0.000242884
-9.67939e-07
0.00156581
0.000196647
-8.70259e-07
0.00156621
0.000158006
-6.44636e-07
0.00156638
0.000123687
-4.34034e-07
0.00156648
9.28832e-05
-1.89488e-07
0.00156663
7.308e-05
-3.84595e-07
0.00156672
5.59191e-05
-3.37419e-07
0.0015668
4.21197e-05
-2.58361e-07
0.00156685
3.12545e-05
-2.04709e-07
0.00156688
2.28981e-05
-1.5507e-07
0.00156691
1.65133e-05
-1.17684e-07
0.00156693
1.18305e-05
-9.08396e-08
0.00156695
8.25216e-06
-7.29825e-08
5.94092e-06
-5.65666e-08
0.00154744
0.0025614
2.75717e-06
0.00155079
0.0025143
-5.35942e-08
0.00155148
0.00244128
-3.96526e-06
0.00155187
0.00236813
4.00732e-06
0.00155105
0.00231409
3.48914e-06
0.00154857
0.00227791
5.01019e-06
0.00154399
0.00230203
4.29968e-06
0.00153493
0.00233696
6.88723e-06
0.00152257
0.00236832
1.06237e-05
0.00150502
0.00218938
1.98662e-05
0.0014882
0.00208814
1.78524e-05
0.00147521
0.00207512
1.42518e-05
0.00146541
0.00206473
1.13359e-05
0.00146032
0.00203566
6.02265e-06
0.00146149
0.00198562
-7.8357e-07
0.00146834
0.00191417
-7.98306e-06
0.00147832
0.00182434
-1.08496e-05
0.00148906
0.00173218
-1.13046e-05
0.00149912
0.00163981
-1.02876e-05
0.00150792
0.00155406
-8.73919e-06
0.00151542
0.00146846
-7.10376e-06
0.00152167
0.00138621
-5.69376e-06
0.00152712
0.00130518
-4.96046e-06
0.00153199
0.00122456
-4.18875e-06
0.00153636
0.0011434
-3.76411e-06
0.0015403
0.00106213
-3.47259e-06
0.00154392
0.000979376
-3.19234e-06
0.00154721
0.000897312
-3.08154e-06
0.00155027
0.000812743
-2.87941e-06
0.00155308
0.000732451
-2.81153e-06
0.00155565
0.000648984
-2.51177e-06
0.00155791
0.000569854
-2.35874e-06
0.00155993
0.00049429
-2.17378e-06
0.00156172
0.000422561
-1.69148e-06
0.00156319
0.000356174
-1.38067e-06
0.00156433
0.000296077
-1.17534e-06
0.00156519
0.000243128
-8.3399e-07
0.0015658
0.000196871
-6.87296e-07
0.00156621
0.000158192
-4.04388e-07
0.00156638
0.000123868
-2.57557e-07
0.00156648
9.29177e-05
-6.91319e-08
0.00156663
7.31492e-05
-1.51729e-07
0.00156673
5.59699e-05
-1.235e-07
0.0015668
4.21402e-05
-6.34965e-08
0.00156685
3.12523e-05
-3.65803e-08
0.00156688
2.28837e-05
-1.1735e-08
0.00156691
1.64975e-05
-6.0778e-09
0.00156693
1.18103e-05
2.36414e-09
0.00156696
8.24323e-06
-1.42619e-08
5.94134e-06
-1.63902e-08
0.00154742
0.0025601
-1.13337e-06
0.0015508
0.00250758
3.32516e-06
0.00155151
0.0024411
-5.84219e-07
0.00155189
0.00235705
1.06986e-05
0.00155108
0.00230694
7.95998e-06
0.00154864
0.00227026
1.05846e-05
0.00154393
0.00228603
2.13862e-05
0.00153467
0.00232714
1.99216e-05
0.00152239
0.0023727
9.27402e-06
0.00150512
0.00220063
6.10002e-06
0.00148829
0.00209515
9.7906e-06
0.00147529
0.00207823
9.91814e-06
0.00146546
0.00206623
8.46531e-06
0.00146032
0.00203625
4.80479e-06
0.00146143
0.0019854
-4.55266e-07
0.00146825
0.00191392
-6.06087e-06
0.00147822
0.0018238
-8.78454e-06
0.00148897
0.00173152
-9.41653e-06
0.00149904
0.00163899
-8.73007e-06
0.00150785
0.00155309
-7.36527e-06
0.00151536
0.00146737
-5.92123e-06
0.00152161
0.00138499
-4.57603e-06
0.00152707
0.00130401
-3.93581e-06
0.00153194
0.00122341
-3.26439e-06
0.00153632
0.00114237
-2.91057e-06
0.00154026
0.00106118
-2.64976e-06
0.00154388
0.000978524
-2.36681e-06
0.00154718
0.000896553
-2.2128e-06
0.00155023
0.000812072
-2.00525e-06
0.00155304
0.000731827
-1.87515e-06
0.00155561
0.000648347
-1.57608e-06
0.00155788
0.000569229
-1.32039e-06
0.0015599
0.000493668
-1.1363e-06
0.00156169
0.00042192
-7.60218e-07
0.00156317
0.000355606
-5.83184e-07
0.00156431
0.000295595
-4.75809e-07
0.00156518
0.000242661
-1.83833e-07
0.0015658
0.000196436
-6.33218e-08
0.00156621
0.000157743
1.93159e-07
0.00156638
0.000123539
2.36561e-07
0.00156648
9.27575e-05
1.65442e-07
0.00156663
7.28499e-05
2.07335e-07
0.00156673
5.57092e-05
1.81855e-07
0.0015668
4.1917e-05
1.7443e-07
0.00156685
3.10744e-05
1.39434e-07
0.00156688
2.27388e-05
1.14808e-07
0.00156691
1.6387e-05
8.74776e-08
0.00156693
1.17217e-05
6.67245e-08
0.00156696
8.18631e-06
3.3819e-08
5.90101e-06
2.12398e-08
0.00154748
0.00256234
-4.74827e-06
0.00155075
0.00249952
4.83198e-06
0.00155141
0.00243677
3.59465e-06
0.00155183
0.00235925
-2.61241e-06
0.0015511
0.00230711
5.49181e-07
0.00154864
0.00228059
-7.13005e-06
0.00154406
0.00229742
-5.76168e-06
0.00153486
0.00232449
1.26899e-05
0.00152237
0.00236101
2.58643e-05
0.00150505
0.00219656
2.15444e-05
0.00148823
0.00209507
1.65231e-05
0.00147526
0.00208099
1.0116e-05
0.00146545
0.00206928
6.86339e-06
0.00146034
0.00203807
3.66254e-06
0.00146148
0.0019855
-6.44018e-07
0.00146832
0.00191236
-4.46863e-06
0.0014783
0.00182192
-7.08397e-06
0.00148905
0.00172976
-7.95726e-06
0.00149912
0.00163759
-7.81868e-06
0.00150792
0.00155196
-6.84997e-06
0.00151542
0.00146645
-5.82314e-06
0.00152167
0.00138421
-4.7511e-06
0.00152712
0.00130332
-4.18018e-06
0.00153199
0.00122277
-3.50992e-06
0.00153636
0.00114176
-3.11239e-06
0.0015403
0.00106058
-2.78248e-06
0.00154392
0.000977883
-2.36661e-06
0.00154722
0.00089585
-2.07406e-06
0.00155027
0.000811316
-1.72525e-06
0.00155308
0.000730991
-1.49264e-06
0.00155564
0.000647465
-1.13882e-06
0.0015579
0.000568229
-8.04817e-07
0.00155992
0.000492647
-6.19668e-07
0.00156171
0.000420963
-2.94634e-07
0.00156319
0.000354749
-1.7752e-07
0.00156433
0.000294837
-1.13894e-07
0.0015652
0.000241946
1.40289e-07
0.00156581
0.00019577
2.20652e-07
0.00156622
0.000157112
4.20724e-07
0.00156639
0.000122989
4.78356e-07
0.00156648
9.24428e-05
2.9868e-07
0.00156663
7.24671e-05
3.02352e-07
0.00156673
5.53945e-05
2.46084e-07
0.0015668
4.16701e-05
2.06154e-07
0.00156685
3.08893e-05
1.48194e-07
0.00156688
2.26062e-05
1.0816e-07
0.00156691
1.62867e-05
7.92904e-08
0.00156693
1.16542e-05
5.14989e-08
0.00156696
8.13126e-06
3.12409e-08
5.85952e-06
2.4769e-08
0.00154749
-6.018e-06
0.00155093
-1.03423e-05
0.00155142
1.72359e-05
0.00155181
7.19374e-06
0.00155098
1.01045e-05
0.00154855
1.33429e-05
0.00154401
1.82662e-06
0.00153489
-9.60938e-07
0.00152242
9.55621e-06
0.001505
1.71718e-05
0.00148819
1.78058e-05
0.00147521
1.47326e-05
0.00146542
1.20369e-05
0.00146033
7.78053e-06
0.00146149
1.4712e-06
0.00146835
-3.71981e-06
0.00147834
-7.31772e-06
0.00148909
-8.78675e-06
0.00149915
-9.0278e-06
0.00150796
-8.28774e-06
0.00151546
-7.39693e-06
0.0015217
-6.43153e-06
0.00152714
-5.86477e-06
0.00153201
-5.14545e-06
0.00153638
-4.67698e-06
0.00154032
-4.29756e-06
0.00154393
-3.80597e-06
0.00154723
-3.47717e-06
0.00155028
-3.06484e-06
0.00155309
-2.857e-06
0.00155565
-2.55843e-06
0.00155792
-2.28697e-06
0.00155994
-2.125e-06
0.00156173
-1.74154e-06
0.0015632
-1.50767e-06
0.00156434
-1.32399e-06
0.0015652
-9.84301e-07
0.00156581
-8.28968e-07
0.00156622
-5.65472e-07
0.00156638
-3.4556e-07
0.00156648
-2.59975e-07
0.00156663
-3.37416e-07
0.00156673
-3.11915e-07
0.0015668
-2.57171e-07
0.00156685
-2.23069e-07
0.00156688
-1.86625e-07
0.00156691
-1.46956e-07
0.00156693
-1.23797e-07
0.00156696
-8.98747e-08
-6.3214e-08
0.00464288
0.00609373
-2.08013e-05
0.00466642
0.00618346
-9.15392e-05
0.00467702
0.00629342
-0.000204739
0.00467693
0.00635719
-0.000189664
0.00467155
0.00639552
-0.00015784
0.00466267
0.00637757
-7.61352e-05
0.00464871
0.00630752
-1.61194e-05
0.00462194
0.00615213
2.57594e-05
0.00458217
0.00596584
5.2667e-05
0.00455071
0.00581009
5.50711e-05
0.00452106
0.00575127
6.27418e-05
0.0044895
0.00577778
5.40404e-05
0.00445406
0.00579511
3.30089e-05
0.00441508
0.00574761
1.59772e-05
0.00438499
0.0056434
-7.9481e-06
0.00437647
0.00547378
-3.26206e-05
0.00439068
0.00525018
-5.20791e-05
0.00442019
0.00499883
-5.79849e-05
0.0044548
0.00473906
-5.47996e-05
0.00448713
0.00449567
-4.62848e-05
0.00451429
0.00426544
-3.82514e-05
0.00453607
0.00404934
-3.09339e-05
0.00455422
0.00383947
-2.55086e-05
0.00456975
0.00363167
-2.06985e-05
0.00458338
0.00342276
-1.70479e-05
0.00459535
0.00321332
-1.4306e-05
0.00460626
0.00299864
-1.19128e-05
0.0046159
0.00278674
-1.01911e-05
0.00462509
0.0025642
-8.80692e-06
0.00463387
0.00234984
-8.30477e-06
0.00464254
0.00212458
-7.95007e-06
0.00465085
0.00190184
-7.93299e-06
0.00465913
0.0016838
-8.37042e-06
0.00466736
0.00146982
-8.22556e-06
0.00467503
0.00126479
-7.80522e-06
0.00468167
0.00107287
-7.20761e-06
0.00468719
0.00089895
-6.35711e-06
0.00469151
0.000742986
-5.99844e-06
0.00469468
0.000609558
-5.4729e-06
0.00469675
0.00048794
-4.14913e-06
0.00469808
0.00038263
-2.80519e-06
0.00469897
0.000301602
-2.93061e-06
0.00469953
0.000234902
-2.53104e-06
0.0046999
0.000180479
-1.94758e-06
0.0047001
0.000136633
-1.42543e-06
0.00470019
0.000102138
-1.04201e-06
0.00470026
7.50783e-05
-7.80996e-07
0.00470032
5.48248e-05
-5.97526e-07
0.00470043
3.8839e-05
-4.84456e-07
2.8343e-05
-3.59858e-07
0.00464853
0.00610288
-1.9722e-05
0.00466382
0.00614362
2.44639e-05
0.00467294
0.0062594
2.09232e-05
0.00467398
0.00635657
3.56769e-06
0.00466674
0.00642561
-1.93984e-05
0.00465652
0.0064188
-2.60845e-05
0.00464749
0.006369
-4.83216e-05
0.00462643
0.00621365
-3.34925e-05
0.00458896
0.00601672
-2.95405e-06
0.00455563
0.00586442
-9.88951e-07
0.00452349
0.0057878
1.37477e-05
0.00448979
0.00577887
4.71997e-05
0.00445326
0.00577426
6.89797e-05
0.00441431
0.00572732
6.54994e-05
0.00438432
0.00562826
4.48139e-05
0.00437648
0.00547433
-3.83368e-07
0.00439099
0.0052486
-2.34769e-05
0.00442063
0.00499514
-3.69375e-05
0.00445529
0.00473275
-3.86157e-05
0.00448719
0.00448752
-3.24998e-05
0.00451392
0.00425566
-2.39247e-05
0.00453567
0.00403843
-1.64907e-05
0.00455393
0.00382776
-1.15649e-05
0.00456956
0.00361944
-7.52111e-06
0.00458328
0.00341032
-4.9223e-06
0.00459532
0.00320103
-3.20878e-06
0.00460632
0.00298691
-2.3272e-06
0.00461602
0.00277571
-1.68523e-06
0.00462526
0.0025539
-1.65324e-06
0.00463404
0.00234009
-1.69864e-06
0.00464266
0.00211486
-1.18014e-06
0.0046509
0.0018926
-1.1843e-06
0.00465913
0.00167515
-1.61966e-06
0.00466733
0.00146174
-1.5606e-06
0.00467498
0.00125743
-1.44243e-06
0.00468162
0.00106648
-1.30801e-06
0.00468713
0.000893419
-6.58129e-07
0.00469145
0.000738275
-2.09391e-07
0.00469463
0.000605394
7.32632e-07
0.00469671
0.000484423
1.29577e-06
0.00469801
0.000379695
1.62053e-06
0.00469893
0.000299062
1.55218e-06
0.00469951
0.000232726
1.48508e-06
0.00469989
0.000178565
1.50019e-06
0.00470009
0.00013498
1.42334e-06
0.00470019
0.000100721
1.29164e-06
0.00470027
7.39715e-05
1.01156e-06
0.00470033
5.38988e-05
8.51085e-07
0.00470045
3.82376e-05
4.73016e-07
2.80082e-05
2.92527e-07
0.00464949
0.00610989
-2.24174e-05
0.00466383
0.00613991
-7.32741e-06
0.00467317
0.00621525
3.41991e-05
0.00468112
0.00634154
1.77697e-05
0.00467393
0.0064092
3.15337e-05
0.00465957
0.00639359
5.01148e-05
0.00464039
0.00629425
0.000115354
0.0046179
0.00614983
0.000106391
0.00458417
0.00598022
7.97548e-05
0.00455405
0.00585068
5.01644e-05
0.004524
0.00580966
1.81569e-05
0.00449107
0.00580851
1.37663e-05
0.00445398
0.00579016
3.02369e-05
0.00441421
0.00572945
4.3318e-05
0.0043841
0.00562413
3.48605e-05
0.00437606
0.00546877
8.72125e-06
0.00439072
0.0052429
-1.6543e-05
0.00442042
0.00498961
-3.24124e-05
0.00445514
0.00472666
-3.66135e-05
0.0044872
0.00448111
-3.2208e-05
0.00451384
0.00424767
-2.38343e-05
0.00453551
0.00402966
-1.6878e-05
0.00455377
0.00381933
-1.32186e-05
0.0045694
0.00361167
-1.04295e-05
0.00458312
0.00340336
-8.86697e-06
0.00459517
0.00319482
-7.84945e-06
0.00460619
0.00298156
-7.23362e-06
0.00461591
0.00277106
-6.60591e-06
0.00462519
0.00255015
-6.69098e-06
0.00463395
0.00233692
-6.70914e-06
0.00464252
0.00211205
-6.39378e-06
0.00465074
0.00189005
-6.25145e-06
0.004659
0.00167289
-6.43591e-06
0.00466723
0.00145981
-6.19235e-06
0.00467491
0.00125586
-5.88955e-06
0.00468158
0.00106516
-5.30492e-06
0.00468713
0.000892055
-3.83523e-06
0.00469147
0.000736705
-2.48074e-06
0.00469471
0.000603295
-5.31568e-07
0.0046968
0.000482849
-1.20157e-08
0.00469807
0.000378613
4.23282e-07
0.00469899
0.000297453
1.06449e-06
0.00469959
0.000231164
1.22355e-06
0.00469996
0.000177215
1.22478e-06
0.00470016
0.000133879
1.07118e-06
0.00470026
9.98382e-05
9.15958e-07
0.00470033
7.3285e-05
7.00819e-07
0.00470039
5.33545e-05
5.54338e-07
0.0047005
3.7894e-05
2.66343e-07
2.78049e-05
1.69847e-07
0.00465037
0.00610622
-1.62279e-05
0.00466321
0.00614521
-1.33589e-05
0.00466476
0.00621017
7.11059e-06
0.00467267
0.0063453
-1.42823e-05
0.00467263
0.00644342
-3.36626e-05
0.00466576
0.00649522
-0.000102035
0.00464895
0.00642487
-0.000119743
0.00462029
0.00623278
-4.14684e-05
0.00458395
0.00603235
9.92833e-06
0.00455367
0.00587604
2.63483e-05
0.00452358
0.00582897
2.81667e-05
0.00449152
0.00584709
3.80285e-06
0.00445491
0.0058312
2.75723e-06
0.00441498
0.00575928
1.3929e-05
0.00438427
0.00563541
1.91508e-05
0.00437561
0.00546256
1.05432e-05
0.00439001
0.00523381
-1.22384e-05
0.0044196
0.00498207
-2.98295e-05
0.00445436
0.00472233
-3.83113e-05
0.00448701
0.00447917
-3.749e-05
0.00451415
0.00424704
-3.21874e-05
0.00453581
0.00402981
-2.64937e-05
0.00455394
0.00382067
-2.37007e-05
0.00456946
0.00361411
-2.13531e-05
0.0045831
0.00340673
-1.99396e-05
0.00459509
0.00319886
-1.87306e-05
0.00460607
0.00298591
-1.74974e-05
0.00461578
0.0027755
-1.60607e-05
0.00462505
0.0025546
-1.51657e-05
0.00463383
0.00234118
-1.42823e-05
0.00464241
0.00211616
-1.34563e-05
0.00465071
0.00189379
-1.25432e-05
0.00465902
0.00167605
-1.1836e-05
0.00466727
0.00146236
-1.07222e-05
0.00467496
0.00125785
-9.52277e-06
0.00468165
0.00106658
-8.03489e-06
0.00468722
0.000892777
-5.91563e-06
0.00469158
0.000736801
-4.08577e-06
0.00469482
0.000602778
-2.07646e-06
0.00469692
0.000482321
-9.49277e-07
0.00469816
0.000378054
-2.5827e-07
0.00469907
0.000296727
2.3391e-07
0.00469966
0.000230415
4.34963e-07
0.00470002
0.000176611
4.69869e-07
0.00470022
0.000133461
3.89349e-07
0.0047003
9.95484e-05
2.94772e-07
0.00470037
7.30652e-05
2.26259e-07
0.00470042
5.32109e-05
1.25028e-07
0.00470053
3.77726e-05
3.96992e-08
2.76562e-05
7.2674e-08
0.00465024
1.13281e-06
0.00467364
-1.84792e-05
0.00467382
0.000107959
0.00467175
0.00016579
0.00466777
0.000207038
0.00465896
0.000218698
0.00464574
0.000168544
0.00461979
0.000119313
0.0045817
0.000117422
0.00455233
0.000111977
0.00452314
0.000113681
0.00449096
0.000110462
0.0044545
9.91856e-05
0.00441435
8.92402e-05
0.00438356
6.20339e-05
0.00437503
2.86879e-05
0.00438956
-9.21439e-06
0.00441931
-3.59722e-05
0.00445411
-4.96421e-05
0.00448689
-5.13962e-05
0.00451432
-4.83725e-05
0.00453608
-4.39011e-05
0.00455417
-4.01683e-05
0.00456962
-3.65375e-05
0.00458319
-3.36037e-05
0.0045951
-3.11441e-05
0.00460603
-2.83384e-05
0.0046157
-2.58147e-05
0.00462493
-2.3442e-05
0.00463372
-2.20901e-05
0.00464237
-2.09063e-05
0.00465072
-1.98797e-05
0.00465904
-1.88893e-05
0.00466729
-1.74174e-05
0.00467499
-1.57978e-05
0.00468168
-1.40143e-05
0.00468724
-1.17354e-05
0.00469159
-9.85853e-06
0.00469479
-7.98236e-06
0.00469688
-5.84078e-06
0.00469816
-4.24906e-06
0.00469905
-4.02269e-06
0.00469962
-3.60308e-06
0.00469999
-3.01207e-06
0.00470018
-2.50001e-06
0.00470026
-2.05949e-06
0.00470032
-1.63407e-06
0.00470037
-1.35207e-06
0.00470049
-9.7174e-07
-6.2439e-07
0.00772569
0.00991168
0.000130562
0.000114521
-0.000165389
-8.35626e-05
0.00773954
0.0101552
2.92786e-05
-3.6964e-05
-6.4094e-05
-0.000137488
0.00777119
0.010268
-0.000108182
-0.00012722
-0.000164037
-0.000224197
0.00778085
0.0101839
-0.000115287
-0.000125111
-0.000221337
-0.000232791
0.00777833
0.0100494
-9.30013e-05
-7.63192e-05
-0.000236944
-0.000216272
0.0077834
0.00991431
-2.04803e-05
-1.10439e-06
-0.000213004
-0.000174113
0.0077682
0.00990476
5.61258e-05
8.31621e-05
-0.000159072
-0.000129499
0.00775084
0.010007
0.000118454
0.000134071
-0.00012567
-0.000114492
0.00773158
0.0100774
0.000146733
0.000151467
-0.000123332
-0.000122152
0.00769907
0.0100203
0.00016478
0.000168693
-0.000114009
-0.000105467
0.00765094
0.00993606
0.000175719
0.000174441
-9.49363e-05
-8.66312e-05
0.00760588
0.00982228
0.000173177
0.000165631
-8.01281e-05
-7.82477e-05
0.00755091
0.00965453
0.000153655
0.000139643
-7.94311e-05
-9.02665e-05
0.00749184
0.00941769
0.000128294
0.000113683
-9.17456e-05
-0.000106837
0.00745465
0.00913103
0.000101118
8.41068e-05
-0.000106565
-0.000119041
0.0074471
0.00879793
7.99334e-05
6.42807e-05
-0.000119538
-0.000127796
0.00746144
0.00844437
6.21752e-05
5.14025e-05
-0.000121728
-0.000124858
0.00748991
0.00807495
5.59789e-05
5.01684e-05
-0.000117514
-0.000116449
0.00752357
0.00770535
5.58239e-05
5.16956e-05
-0.000110415
-0.000108429
0.00755775
0.00735511
5.70059e-05
5.34528e-05
-0.000103284
-0.000101183
0.0075895
0.00702113
5.83462e-05
5.51619e-05
-9.69089e-05
-9.48796e-05
0.0076162
0.00669712
5.94858e-05
5.64813e-05
-9.11152e-05
-8.9047e-05
0.00763815
0.00638008
6.03322e-05
5.73568e-05
-8.57369e-05
-8.36466e-05
0.00765593
0.00606933
6.08135e-05
5.78842e-05
-8.06324e-05
-7.863e-05
0.00767084
0.0057593
6.07973e-05
5.78431e-05
-7.60321e-05
-7.40761e-05
0.00768292
0.00544847
6.02699e-05
5.7318e-05
-7.17582e-05
-6.98493e-05
0.00769367
0.00512977
5.92223e-05
5.61049e-05
-6.75543e-05
-6.57447e-05
0.00770255
0.00481935
5.7483e-05
5.44146e-05
-6.34723e-05
-6.1483e-05
0.00771095
0.00449273
5.53228e-05
5.21053e-05
-5.95212e-05
-5.75558e-05
0.00771927
0.00417183
5.2459e-05
4.92904e-05
-5.59453e-05
-5.39541e-05
0.0077282
0.0038361
4.91406e-05
4.59771e-05
-5.26099e-05
-5.03507e-05
0.00773758
0.00348541
4.52266e-05
4.15302e-05
-4.89823e-05
-4.67014e-05
0.00774798
0.00312859
4.06645e-05
3.65816e-05
-4.53691e-05
-4.29819e-05
0.00775941
0.00277053
3.57418e-05
3.16689e-05
-4.148e-05
-3.88739e-05
0.007771
0.00241975
3.10035e-05
2.70887e-05
-3.73092e-05
-3.45505e-05
0.00778168
0.00208393
2.6748e-05
2.2814e-05
-3.27488e-05
-3.02889e-05
0.00779109
0.00177314
2.25682e-05
1.88411e-05
-2.85073e-05
-2.62231e-05
0.00779896
0.00148933
1.84378e-05
1.48491e-05
-2.48869e-05
-2.27945e-05
0.00780498
0.00124117
1.44434e-05
1.12283e-05
-2.16925e-05
-1.98742e-05
0.00780927
0.00101254
1.15478e-05
8.76848e-06
-1.83073e-05
-1.62454e-05
0.00781214
0.000812656
9.48406e-06
7.2132e-06
-1.46386e-05
-1.27361e-05
0.00781384
0.000646848
7.31074e-06
5.13412e-06
-1.17349e-05
-1.02316e-05
0.0078149
0.000509193
5.44241e-06
3.53666e-06
-9.3024e-06
-8.04841e-06
0.00781556
0.000396012
4.15945e-06
2.58876e-06
-7.12988e-06
-6.06115e-06
0.00781585
0.000303556
3.24437e-06
1.90802e-06
-5.32203e-06
-4.45985e-06
0.00781596
0.000230019
2.48569e-06
1.33517e-06
-3.87901e-06
-3.24683e-06
0.007816
0.000171232
1.88456e-06
8.91026e-07
-2.85359e-06
-2.35377e-06
0.00781607
0.000126806
1.38618e-06
5.2408e-07
-2.03227e-06
-1.70631e-06
0.0078163
9.06916e-05
1.03232e-06
2.53597e-07
-1.55051e-06
-1.29895e-06
6.69898e-05
7.54243e-07
1.92491e-07
-1.06674e-06
-9.53477e-07
0.00775083
0.00989189
-2.54117e-05
0.00774134
0.00989915
0.000289952
0.00777569
0.00986408
0.000390421
0.00778106
0.00985926
0.000322866
0.00777631
0.0098121
0.000222615
0.00775989
0.00978698
0.000117588
0.00775335
0.00980739
5.55843e-05
0.00774628
0.00991038
7.0188e-05
0.00773887
0.0100375
4.46967e-05
0.00772237
0.0100441
-8.53109e-06
0.00766432
0.00997171
3.70898e-05
0.00759688
0.00976695
0.000170124
0.00753736
0.00951706
0.000266304
0.00747914
0.00927453
0.000267443
0.00744377
0.00900412
0.000207653
0.00743819
0.00871967
8.41683e-05
0.00745299
0.00836232
4.46391e-05
0.00748199
0.00799977
1.02384e-05
0.00751673
0.00763383
-1.27281e-06
0.00755152
0.0072843
4.28718e-06
0.00758403
0.00695256
1.29661e-05
0.00761135
0.0066305
2.32327e-05
0.00763408
0.0063165
2.97519e-05
0.00765282
0.00600889
3.46613e-05
0.00766901
0.00570261
3.63455e-05
0.00768255
0.00539604
3.61462e-05
0.00769427
0.00508227
3.42178e-05
0.0077035
0.00477539
3.35694e-05
0.00771212
0.0044514
3.1883e-05
0.00772052
0.00413301
2.93678e-05
0.00772932
0.00380006
2.70301e-05
0.00773827
0.00345162
2.43e-05
0.00774822
0.0030978
1.98241e-05
0.00775925
0.00274304
1.57398e-05
0.0077705
0.00239565
1.2268e-05
0.00778096
0.00206358
9.08133e-06
0.00779023
0.00175634
7.41205e-06
0.00779803
0.00147521
6.44237e-06
0.00780404
0.00122894
7.4225e-06
0.00780837
0.00100184
8.00181e-06
0.00781126
0.000804956
6.82536e-06
0.00781309
0.000640347
6.39706e-06
0.00781428
0.00050342
6.11881e-06
0.00781502
0.000390975
5.88415e-06
0.00781537
0.000299199
5.43964e-06
0.00781551
0.000226293
4.88402e-06
0.00781564
0.000168313
3.76429e-06
0.00781575
0.000124357
3.20311e-06
0.007816
8.90984e-05
1.78832e-06
6.64743e-05
1.07706e-06
0.00774714
0.00990715
-5.95145e-05
0.00772767
0.00984951
6.17518e-05
0.0077488
0.00971908
0.000158053
0.00778372
0.00968683
0.000155269
0.0077981
0.00974208
8.71227e-05
0.00777216
0.0098079
5.50724e-05
0.00774245
0.00986903
8.33492e-05
0.007729
0.00995766
7.25888e-05
0.00771399
0.010037
9.51775e-05
0.00772068
0.0101192
-3.1566e-05
0.00768379
0.0100565
-2.95822e-05
0.00762405
0.00989534
-5.48536e-05
0.00754926
0.00959306
2.90972e-05
0.00748443
0.00928933
9.33612e-05
0.00744787
0.00898547
9.01833e-05
0.00743785
0.0086852
5.32742e-05
0.00745292
0.00833535
-4.52201e-06
0.00748184
0.00797823
-3.96518e-05
0.00751648
0.00761375
-5.10836e-05
0.00755073
0.007264
-4.58009e-05
0.00758248
0.00693239
-3.51854e-05
0.00760986
0.0066106
-2.44036e-05
0.00763278
0.00629837
-1.82039e-05
0.00765161
0.00599294
-1.33886e-05
0.00766779
0.00568891
-1.13729e-05
0.00768129
0.00538502
-1.03571e-05
0.0076932
0.00507384
-1.07076e-05
0.00770297
0.00476937
-1.03199e-05
0.007712
0.00444712
-1.13606e-05
0.00772062
0.0041309
-1.31e-05
0.00772925
0.00379967
-1.43683e-05
0.00773807
0.00345279
-1.61962e-05
0.00774789
0.00310065
-1.90568e-05
0.00775882
0.00274719
-2.11576e-05
0.00777008
0.00240095
-2.23266e-05
0.00778072
0.00206963
-2.19392e-05
0.00779024
0.00176169
-1.86299e-05
0.00779817
0.00147942
-1.45747e-05
0.00780449
0.00123041
-8.21926e-06
0.00780899
0.00100299
-5.35934e-06
0.00781168
0.000806714
-3.83509e-06
0.00781351
0.00064074
-1.01025e-06
0.00781475
0.000502977
4.19692e-07
0.00781549
0.00039049
9.70732e-07
0.00781582
0.000298911
1.01054e-06
0.00781594
0.000226074
9.77887e-07
0.00781604
0.000168164
7.07767e-07
0.00781613
0.000124222
5.75683e-07
0.00781636
8.91291e-05
-1.9363e-08
6.67665e-05
-1.58187e-07
0.00774602
0.0098912
-2.09532e-05
0.00772013
0.00984138
2.06387e-05
0.0077334
0.00956489
0.000147993
0.00775364
0.00943225
0.000220053
0.00778703
0.00947155
0.000203419
0.00780434
0.00963144
5.70647e-05
0.00777513
0.00986761
-8.9147e-05
0.00774858
0.0100394
-9.66353e-05
0.00772343
0.010079
-6.79859e-06
0.00769454
0.0101166
5.79858e-05
0.00766134
0.0100561
6.15358e-05
0.00761746
0.00993761
5.7664e-06
0.00755133
0.0096547
7.43836e-06
0.00748679
0.00931805
5.01957e-05
0.00744537
0.00896957
7.69771e-05
0.00743276
0.00863916
6.9875e-05
0.00744722
0.00829601
1.33641e-05
0.00747764
0.00795057
-3.1596e-05
0.00751399
0.00759696
-5.7323e-05
0.00754968
0.0072545
-6.33227e-05
0.00758205
0.00692752
-5.87144e-05
0.00760953
0.00660878
-5.19048e-05
0.00763269
0.00629939
-4.73843e-05
0.00765151
0.00599672
-4.36074e-05
0.00766751
0.00569524
-4.14542e-05
0.00768066
0.00539329
-3.98798e-05
0.00769248
0.00508342
-3.80613e-05
0.0077022
0.00477976
-3.57974e-05
0.00771116
0.00445887
-3.49568e-05
0.00771975
0.00414304
-3.45039e-05
0.00772828
0.00381192
-3.32492e-05
0.00773725
0.00346446
-3.25666e-05
0.00774727
0.00311123
-3.17985e-05
0.00775842
0.00275595
-2.9749e-05
0.00776993
0.00240766
-2.68191e-05
0.00778083
0.00207393
-2.27787e-05
0.00779064
0.00176355
-1.69411e-05
0.00779877
0.00147915
-1.16417e-05
0.00780536
0.00122799
-5.6695e-06
0.00780985
0.00100005
-2.27162e-06
0.00781249
0.000803296
7.08437e-07
0.00781427
0.000637171
2.30843e-06
0.00781544
0.000499283
3.00133e-06
0.00781615
0.000387278
3.09345e-06
0.00781642
0.000296301
2.71106e-06
0.00781649
0.00022403
2.29172e-06
0.00781649
0.000166495
1.84589e-06
0.00781652
0.000122963
1.3835e-06
0.00781671
8.8194e-05
7.37352e-07
6.58134e-05
7.21225e-07
0.00774926
-6.04844e-05
0.00775089
-0.000230085
0.007738
-0.000195066
0.00775177
-0.000104499
0.00776216
8.59349e-05
0.00777463
0.000250668
0.00777492
0.00027934
0.00775236
0.000205214
0.00773962
0.000151134
0.00770587
0.000215405
0.00766604
0.000215908
0.00761502
0.000195743
0.00755042
0.00012861
0.00748464
8.75551e-05
0.007445
1.04434e-05
0.00743536
-4.17405e-05
0.00745027
-0.000104884
0.00748091
-0.000148342
0.00751733
-0.000171163
0.00755342
-0.000173553
0.00758584
-0.000164836
0.00761296
-0.000152646
0.00763544
-0.000138899
0.00765352
-0.000124862
0.0076685
-0.00011229
0.00768054
-0.000100561
0.00769155
-8.95619e-05
0.00770106
-8.06111e-05
0.00770981
-7.26045e-05
0.00771835
-6.72407e-05
0.00772704
-6.13368e-05
0.00773636
-5.78349e-05
0.00774675
-5.35938e-05
0.00775827
-4.9013e-05
0.00777007
-4.41046e-05
0.00778119
-3.89904e-05
0.00779109
-3.28927e-05
0.00779931
-2.73023e-05
0.00780572
-2.23856e-05
0.00781007
-1.63133e-05
0.00781282
-1.0952e-05
0.00781452
-1.00988e-05
0.00781561
-9.77781e-06
0.00781625
-8.44449e-06
0.0078165
-7.12172e-06
0.00781653
-5.96414e-06
0.00781647
-4.806e-06
0.00781648
-4.05441e-06
0.00781665
-2.87563e-06
-1.71017e-06
0.00256915
0.00337835
0.000203138
-0.00259297
0.00262972
0.00363439
-4.97057e-05
-0.00264234
0.00264451
0.00373964
-0.000225123
-0.00262454
0.00262447
0.0037978
-0.000233886
-0.00261031
0.0026012
0.00383686
-0.000179889
-0.00258954
0.00257617
0.00380918
-5.04109e-05
-0.00257106
0.0025648
0.00376053
6.46972e-05
-0.00256604
0.00256148
0.00368272
0.00013777
-0.00256063
0.00255372
0.00357343
0.000169887
-0.0025531
0.00254683
0.00344981
0.000193868
-0.00254866
0.0025492
0.00333942
0.000202305
-0.00255594
0.00256052
0.00324521
0.000191664
-0.00256937
0.00257339
0.00315577
0.00016047
-0.00258228
0.00258319
0.00305651
0.000122809
-0.0025891
0.00258765
0.00294088
8.99296e-05
-0.00259204
0.00258699
0.00280766
6.7061e-05
-0.00258962
0.00258411
0.00268169
4.00178e-05
-0.00258512
0.00257951
0.00256529
3.22623e-05
-0.0025803
0.00257601
0.00245796
3.21544e-05
-0.00257719
0.00257438
0.00235811
3.32404e-05
-0.00257636
0.00257435
0.00226377
3.52406e-05
-0.00257666
0.00257489
0.00217123
3.68994e-05
-0.00257725
0.00257564
0.00207967
3.85874e-05
-0.00257797
0.00257633
0.00198877
4.03562e-05
-0.00257848
0.00257681
0.00189801
4.18008e-05
-0.00257889
0.0025771
0.00180638
4.29727e-05
-0.00257904
0.00257717
0.00171332
4.36382e-05
-0.00257922
0.00257745
0.00161933
4.36999e-05
-0.00257941
0.00257747
0.00152294
4.34045e-05
-0.00257943
0.00257764
0.00142304
4.26768e-05
-0.00257973
0.00257812
0.00132175
4.15673e-05
-0.0025804
0.00257883
0.0012124
3.96275e-05
-0.00258134
0.00257985
0.00109888
3.63676e-05
-0.00258259
0.00258128
0.000983369
3.2272e-05
-0.00258423
0.00258311
0.000868371
2.82976e-05
-0.00258605
0.00258495
0.000756513
2.47825e-05
-0.0025878
0.00258671
0.000650638
2.10717e-05
-0.00258933
0.00258822
0.00055259
1.68633e-05
-0.00259063
0.00258959
0.000463646
1.24414e-05
-0.00259169
0.00259052
0.000384138
9.17194e-06
-0.00259234
0.00259114
0.00031187
7.61254e-06
-0.00259267
0.0025915
0.000250649
5.90049e-06
-0.00259287
0.00259174
0.000198795
4.15766e-06
-0.00259297
0.00259193
0.000155627
3.13761e-06
-0.00259302
0.00259204
0.000120125
2.48546e-06
-0.00259297
0.00259208
9.15985e-05
1.93675e-06
-0.0025929
0.00259206
6.87567e-05
1.46276e-06
-0.0025928
0.00259207
5.10909e-05
1.07073e-06
-0.00259277
0.00259209
3.7033e-05
6.80956e-07
-0.00259275
0.00259228
2.67527e-05
4.4371e-07
0.0109863
0.0138601
-0.000165757
-0.00330614
-0.00331498
-0.00363688
-0.00363256
0.0109998
0.0140046
0.000410625
-0.00347012
-0.00354679
-0.00354908
-0.00357275
0.010994
0.0144017
0.000529561
-0.00363995
-0.00369691
-0.00359142
-0.00360687
0.0109373
0.0146235
0.000478753
-0.00371652
-0.00374716
-0.00361673
-0.00364225
0.0108654
0.0148257
0.000389047
-0.00376656
-0.00378077
-0.00369011
-0.00368287
0.010824
0.014827
0.000240115
-0.00375825
-0.00374922
-0.00371081
-0.00368995
0.0107835
0.0145758
0.000160371
-0.00370184
-0.00367591
-0.00364494
-0.00361752
0.010761
0.0141738
0.000131684
-0.00360222
-0.00356684
-0.00353979
-0.00350396
0.0107593
0.0137198
4.80423e-05
-0.0034751
-0.0034376
-0.00342485
-0.00338384
0.0107661
0.0131537
3.17599e-06
-0.00333755
-0.00329393
-0.00329131
-0.00324974
0.0107641
0.0127193
5.14073e-05
-0.00321789
-0.00318307
-0.00318179
-0.00314956
0.0107889
0.0122742