/*--------------------------------*- C++ -*----------------------------------*\
| =========                 |                                                 |
| \\      /  F ield         | OpenFOAM: The Open Source CFD Toolbox           |
|  \\    /   O peration     | Version:  4.1                                   |
|   \\  /    A nd           | Web:      www.OpenFOAM.org                      |
|    \\/     M anipulation  |                                                 |
\*---------------------------------------------------------------------------*/
FoamFile
{
    version     2.0;
    format      ascii;
    class       volVectorField;
    location    "100";
    object      U;
}
// * * * * * * * * * * * * * * * * * * * * * * * * * * * * * * * * * * * * * //

dimensions      [0 1 -1 0 0 0 0];

internalField   nonuniform List<vector> 
1600
(
(0.999868 0.103492 0.0785511)
(1.00273 0.101628 0.0767364)
(1.00437 0.097064 0.075608)
(1.00431 0.0933414 0.0749772)
(1.00431 0.0924414 0.0715653)
(1.00323 0.0929154 0.0681168)
(1.00141 0.0968374 0.0648145)
(0.996785 0.0987989 0.065003)
(0.99025 0.0992316 0.0673049)
(0.980443 0.0928389 0.0610923)
(0.967737 0.0879315 0.0590149)
(0.958501 0.0869976 0.0591806)
(0.950968 0.0864328 0.0590277)
(0.945815 0.0851918 0.0580791)
(0.944425 0.0831504 0.0564594)
(0.947315 0.0800845 0.0543427)
(0.95336 0.0762026 0.0519578)
(0.960295 0.0722181 0.0495529)
(0.967277 0.0682528 0.047129)
(0.973306 0.0645976 0.0448308)
(0.97867 0.0609809 0.0424796)
(0.983005 0.057514 0.0401885)
(0.986749 0.0541316 0.0378811)
(0.990045 0.0507523 0.0355941)
(0.993049 0.0473681 0.0332675)
(0.995694 0.0439806 0.030929)
(0.998149 0.0405252 0.0285477)
(1.00036 0.0371129 0.0261679)
(1.00243 0.0335883 0.0237254)
(1.0043 0.0302553 0.0213885)
(1.00607 0.0267838 0.0189664)
(1.00763 0.0235001 0.0166549)
(1.00901 0.0203753 0.0144447)
(1.01025 0.0173957 0.0123727)
(1.01131 0.014652 0.0104434)
(1.01215 0.0121753 0.00868612)
(1.01278 0.00998388 0.0071438)
(1.01326 0.00808087 0.00578257)
(1.01358 0.00648237 0.00465317)
(1.01378 0.00506877 0.00364763)
(1.01379 0.00379559 0.0027517)
(1.01391 0.00299863 0.00214481)
(1.01398 0.00229508 0.00163894)
(1.01403 0.001728 0.001234)
(1.01407 0.00128264 0.000914584)
(1.0141 0.000939978 0.000669161)
(1.01412 0.000677886 0.000481952)
(1.01413 0.000485905 0.000344758)
(1.01414 0.000339259 0.000239622)
(1.01417 0.000244099 0.000172434)
(0.999843 0.122816 0.0424294)
(1.00275 0.120109 0.0424772)
(1.00438 0.116233 0.0422343)
(1.0043 0.112537 0.0427161)
(1.00431 0.110494 0.0397282)
(1.00317 0.109718 0.0362354)
(1.00142 0.112607 0.0313421)
(0.996759 0.114462 0.0307586)
(0.990371 0.115439 0.0324164)
(0.98046 0.106988 0.0291526)
(0.96778 0.101731 0.0289247)
(0.958532 0.100896 0.0293962)
(0.950983 0.100353 0.0293861)
(0.945814 0.0989774 0.0288604)
(0.944414 0.0965981 0.0279637)
(0.947294 0.0931042 0.0268867)
(0.953331 0.0886721 0.0258236)
(0.960258 0.0841182 0.0247662)
(0.967241 0.0795614 0.023692)
(0.973274 0.0753519 0.022647)
(0.978637 0.071169 0.0215245)
(0.982976 0.0671538 0.0204104)
(0.986725 0.0632167 0.0192552)
(0.990024 0.0592948 0.01812)
(0.993031 0.0553553 0.0169453)
(0.995677 0.0514109 0.0157599)
(0.998134 0.0473934 0.0145555)
(1.00035 0.043416 0.0133404)
(1.00241 0.0393136 0.0121025)
(1.00429 0.0354254 0.0109092)
(1.00606 0.0313842 0.00968114)
(1.00762 0.0275582 0.00849793)
(1.00899 0.0239043 0.00737018)
(1.01024 0.0204261 0.00633284)
(1.0113 0.017212 0.00535436)
(1.01214 0.0143067 0.00445507)
(1.01278 0.0117442 0.00367385)
(1.01326 0.00951057 0.00297445)
(1.01357 0.00763979 0.00240136)
(1.01378 0.00597931 0.00188497)
(1.01379 0.00448589 0.00142412)
(1.01391 0.003536 0.00110527)
(1.01398 0.00270679 0.000843457)
(1.01404 0.00203851 0.000635692)
(1.01407 0.00151272 0.000470792)
(1.0141 0.00110826 0.000344249)
(1.01412 0.000799304 0.000247727)
(1.01413 0.000572602 0.000177114)
(1.01415 0.000399909 0.000122442)
(1.01417 0.000288113 8.82983e-05)
(0.999797 0.129627 0.00235195)
(1.00276 0.127176 0.00395151)
(1.0044 0.123607 0.00486756)
(1.00432 0.119566 0.00584202)
(1.00433 0.116995 0.0046202)
(1.0032 0.114924 0.00158914)
(1.00148 0.115889 -0.00326067)
(0.996638 0.118103 -0.00490282)
(0.990133 0.120123 -0.00420092)
(0.980522 0.111151 -0.00539723)
(0.967841 0.105887 -0.00407534)
(0.958589 0.105111 -0.00328047)
(0.951031 0.104545 -0.00308689)
(0.945829 0.103081 -0.0031114)
(0.944394 0.100537 -0.00319027)
(0.947249 0.0969333 -0.00307442)
(0.953272 0.092374 -0.00270056)
(0.960197 0.0876982 -0.00229547)
(0.967188 0.0830092 -0.00191825)
(0.973232 0.0786575 -0.00161125)
(0.978594 0.0743202 -0.00138867)
(0.982937 0.07015 -0.00120742)
(0.986691 0.0660477 -0.00109036)
(0.989994 0.0619668 -0.000954882)
(0.993004 0.0578614 -0.000851457)
(0.995653 0.0537502 -0.000754798)
(0.998112 0.0495653 -0.000652661)
(1.00033 0.0454147 -0.000573424)
(1.0024 0.0411376 -0.000479382)
(1.00427 0.0370761 -0.000407566)
(1.00604 0.032853 -0.000319956)
(1.0076 0.028851 -0.000245186)
(1.00897 0.025028 -0.000187547)
(1.01022 0.0213975 -0.000118714)
(1.01129 0.0180383 -8.35798e-05)
(1.01214 0.0149974 -6.40141e-05)
(1.01278 0.0123167 -3.03814e-05)
(1.01325 0.00997447 -1.79908e-05)
(1.01357 0.00801463 3.52067e-06)
(1.01378 0.00627833 1.40141e-05)
(1.01379 0.00470921 1.79415e-06)
(1.01391 0.00370646 4.31818e-06)
(1.01399 0.00283594 2.68323e-06)
(1.01404 0.00213506 3.68061e-06)
(1.01408 0.00158353 2.50337e-06)
(1.0141 0.00115946 1.66482e-06)
(1.01412 0.000835996 1.07857e-06)
(1.01414 0.000598381 5.88447e-07)
(1.01415 0.000417942 -5.23554e-07)
(1.01417 0.000301481 -1.95251e-07)
(0.999824 0.123976 -0.0378493)
(1.00278 0.121576 -0.035468)
(1.00432 0.119269 -0.0327573)
(1.00426 0.115173 -0.0318575)
(1.00427 0.112351 -0.0324148)
(1.00328 0.10987 -0.0348819)
(1.00142 0.10899 -0.0397107)
(0.996841 0.110152 -0.0410937)
(0.990149 0.112503 -0.0405605)
(0.980472 0.10432 -0.0392789)
(0.9678 0.0996757 -0.036662)
(0.958557 0.0991341 -0.0357191)
(0.951014 0.0986253 -0.0352924)
(0.94583 0.0971505 -0.0347743)
(0.94441 0.0946331 -0.0339995)
(0.947285 0.0912032 -0.032704)
(0.953318 0.0869673 -0.0309296)
(0.960249 0.0826466 -0.0291096)
(0.967238 0.0783067 -0.0273307)
(0.973278 0.0742571 -0.0257139)
(0.978637 0.0702006 -0.0241659)
(0.982973 0.0662976 -0.0227083)
(0.986723 0.0624358 -0.0213298)
(0.990023 0.0585986 -0.0199365)
(0.993031 0.054731 -0.0185644)
(0.995677 0.0508558 -0.0171951)
(0.998135 0.0469107 -0.015796)
(1.00035 0.0429899 -0.0144291)
(1.00242 0.0389529 -0.0130107)
(1.00429 0.0351118 -0.0116808)
(1.00606 0.0311223 -0.0102831)
(1.00761 0.0273392 -0.00896195)
(1.00898 0.0237177 -0.00773052)
(1.01023 0.0202805 -0.00656295)
(1.01131 0.0170956 -0.00551519)
(1.01215 0.0142108 -0.00457729)
(1.01278 0.0116708 -0.00373201)
(1.01326 0.00944803 -0.0030098)
(1.01358 0.00759046 -0.00239533)
(1.01379 0.00594829 -0.00186035)
(1.01379 0.00446499 -0.00140673)
(1.01391 0.0035047 -0.00109828)
(1.01398 0.00267959 -0.000839112)
(1.01404 0.0020164 -0.000629359)
(1.01408 0.00149466 -0.000466544)
(1.0141 0.00109369 -0.000341531)
(1.01412 0.000788154 -0.000245991)
(1.01413 0.000563724 -0.000176251)
(1.01415 0.000393431 -0.000123541)
(1.01417 0.000283661 -8.88706e-05)
(0.999716 0.106485 -0.0741961)
(1.00291 0.104411 -0.0717581)
(1.00439 0.103176 -0.0666979)
(1.00425 0.100705 -0.0638966)
(1.00424 0.0970162 -0.0642501)
(1.00315 0.0942767 -0.0660146)
(1.00144 0.0923179 -0.0710836)
(0.996781 0.0928912 -0.0730686)
(0.990248 0.0948617 -0.0730481)
(0.980445 0.0870424 -0.0695699)
(0.967767 0.0834508 -0.0656296)
(0.958525 0.0832854 -0.0645855)
(0.950987 0.0829533 -0.064001)
(0.945819 0.0816522 -0.0630293)
(0.944413 0.0794461 -0.0615288)
(0.9473 0.0765096 -0.0592379)
(0.95334 0.0730265 -0.0562766)
(0.960276 0.0694949 -0.0532438)
(0.967262 0.0659414 -0.0502442)
(0.973299 0.0626043 -0.0474846)
(0.978662 0.0592379 -0.0447747)
(0.982997 0.0559832 -0.0421887)
(0.986743 0.0527438 -0.0396907)
(0.99004 0.0495262 -0.0371845)
(0.993044 0.0462729 -0.0346877)
(0.995689 0.0430089 -0.0321901)
(0.998145 0.0396841 -0.0296397)
(1.00036 0.0363727 -0.0271292)
(1.00242 0.0329667 -0.024532)
(1.0043 0.029719 -0.0220818)
(1.00606 0.0263492 -0.0195233)
(1.00762 0.0231438 -0.0171024)
(1.009 0.020074 -0.014814)
(1.01024 0.0171713 -0.012632)
(1.01131 0.0144784 -0.0106361)
(1.01215 0.0120355 -0.00883763)
(1.01279 0.00988657 -0.00723634)
(1.01326 0.00800127 -0.0058523)
(1.01358 0.00642952 -0.00468438)
(1.01378 0.00503892 -0.00365882)
(1.01379 0.0037936 -0.00275318)
(1.01391 0.00296458 -0.00216389)
(1.01398 0.00226543 -0.00165591)
(1.01404 0.00170453 -0.00124598)
(1.01407 0.00126312 -0.000925013)
(1.0141 0.000924026 -0.000678115)
(1.01412 0.000665577 -0.000489074)
(1.01413 0.00047595 -0.000350747)
(1.01414 0.000331608 -0.000245117)
(1.01417 0.000238707 -0.000176406)
(0.999307 0.250105 0.1783)
(1.00359 0.256109 0.17748)
(1.00912 0.266293 0.169522)
(1.00929 0.266092 0.170801)
(1.00869 0.262282 0.176879)
(1.00698 0.255768 0.18567)
(1.00481 0.245198 0.195527)
(1.00092 0.237118 0.194226)
(0.992904 0.230904 0.188134)
(0.984772 0.227091 0.181357)
(0.978457 0.22987 0.175923)
(0.971981 0.234551 0.174063)
(0.96507 0.236668 0.172897)
(0.956632 0.235209 0.170498)
(0.948126 0.231724 0.165977)
(0.943529 0.225907 0.159446)
(0.944648 0.217524 0.152038)
(0.949832 0.207558 0.144523)
(0.957414 0.196851 0.137202)
(0.964784 0.186517 0.130561)
(0.971375 0.17677 0.124192)
(0.976504 0.167656 0.118188)
(0.980749 0.158859 0.112253)
(0.984314 0.150151 0.106372)
(0.987453 0.141435 0.100397)
(0.990168 0.132727 0.0943681)
(0.992651 0.123802 0.0881799)
(0.994828 0.115034 0.0820072)
(0.996859 0.105818 0.0755144)
(0.998754 0.0969758 0.069205)
(1.00067 0.0876695 0.062574)
(1.00249 0.0784635 0.0560155)
(1.00427 0.069453 0.0495638)
(1.00609 0.0605904 0.0432717)
(1.00784 0.0521203 0.0372242)
(1.00941 0.0442027 0.0315569)
(1.01072 0.0370074 0.026436)
(1.01178 0.0305751 0.0218178)
(1.01257 0.0250509 0.0178841)
(1.01314 0.0200252 0.014332)
(1.01346 0.0156699 0.0112573)
(1.01369 0.0123758 0.00882332)
(1.01384 0.0096367 0.00685948)
(1.01393 0.00740001 0.00526712)
(1.01399 0.00560049 0.00398587)
(1.01401 0.00418362 0.00297957)
(1.01402 0.00307392 0.00218814)
(1.01404 0.00224372 0.00159658)
(1.01405 0.00159164 0.00112738)
(1.01409 0.00115781 0.000821396)
(1.00092 0.294311 0.0921701)
(1.00375 0.296995 0.0956777)
(1.00805 0.306239 0.0917224)
(1.0086 0.310697 0.0920761)
(1.00802 0.313589 0.0970483)
(1.00546 0.310022 0.104844)
(1.00379 0.305005 0.111787)
(1.00135 0.296196 0.112287)
(0.994432 0.286747 0.108801)
(0.986057 0.279852 0.102561)
(0.979307 0.276741 0.0952025)
(0.972208 0.277404 0.0920225)
(0.964941 0.278036 0.0908834)
(0.956422 0.276006 0.0895936)
(0.947942 0.271621 0.0867002)
(0.943461 0.264585 0.0822835)
(0.944692 0.254094 0.0779376)
(0.949914 0.242026 0.0737174)
(0.957511 0.229347 0.0699812)
(0.964865 0.217374 0.0667984)
(0.971311 0.206064 0.0638419)
(0.976399 0.195478 0.0609647)
(0.980667 0.185235 0.0580098)
(0.984254 0.175104 0.0550674)
(0.987414 0.164952 0.0520264)
(0.990146 0.154798 0.0489456)
(0.992651 0.144409 0.0457622)
(0.994843 0.134186 0.0425662)
(0.996886 0.123457 0.0392003)
(0.998788 0.11313 0.0359296)
(1.0007 0.102251 0.0325337)
(1.0025 0.0915044 0.0291461)
(1.00427 0.0810067 0.0258173)
(1.00608 0.0706906 0.0225857)
(1.00783 0.0608174 0.0194548)
(1.00939 0.0515897 0.0165127)
(1.0107 0.0432191 0.013879)
(1.01176 0.0357215 0.0114921)
(1.01255 0.0292976 0.00947825)
(1.01312 0.023441 0.00761176)
(1.01344 0.0183589 0.00600391)
(1.01367 0.0144751 0.00472659)
(1.01382 0.0112724 0.00368664)
(1.01392 0.00865204 0.00284287)
(1.01398 0.00654393 0.00215918)
(1.014 0.00488556 0.00162144)
(1.01402 0.00358956 0.00119308)
(1.01403 0.00261762 0.000874454)
(1.01405 0.0018582 0.00061351)
(1.01408 0.0013592 0.000447616)
(1.00094 0.309736 -0.00401505)
(1.00454 0.309999 -0.00334621)
(1.00712 0.31489 -0.00908594)
(1.00981 0.319311 -0.0105343)
(1.00959 0.321728 -0.0070346)
(1.00729 0.322061 0.00095039)
(1.00294 0.317654 0.0135094)
(0.999261 0.310783 0.0165542)
(0.992987 0.302362 0.0120296)
(0.985411 0.296419 0.00438978)
(0.979205 0.293573 0.00148768)
(0.972521 0.293091 -0.000589082)
(0.965175 0.292517 -0.00152908)
(0.956443 0.289886 -0.00158794)
(0.947878 0.284756 -0.00247557)
(0.943388 0.277036 -0.00358353)
(0.944617 0.265597 -0.00430748)
(0.949867 0.252733 -0.00451236)
(0.957467 0.239395 -0.00419585)
(0.964853 0.226983 -0.00355399)
(0.971307 0.215164 -0.00281964)
(0.976364 0.204131 -0.00227468)
(0.980629 0.193474 -0.00197648)
(0.98422 0.182943 -0.00170327)
(0.987379 0.172381 -0.00150311)
(0.990111 0.161809 -0.00131884)
(0.992616 0.150995 -0.00114328)
(0.994815 0.140319 -0.00101454)
(0.996868 0.129115 -0.000894141)
(0.998775 0.118311 -0.000792086)
(1.00067 0.10692 -0.000670119)
(1.00247 0.0957094 -0.000554012)
(1.00424 0.0847381 -0.000467611)
(1.00605 0.0739575 -0.000353952)
(1.00781 0.0636324 -0.000282404)
(1.00938 0.0539806 -0.000222897)
(1.01069 0.0452269 -0.000126515)
(1.01176 0.0373734 -6.04205e-05)
(1.01256 0.0306362 2.56874e-05)
(1.01314 0.0245113 4.03238e-05)
(1.01345 0.0192257 4.78561e-05)
(1.01368 0.0151312 6.727e-05)
(1.01384 0.011771 6.60494e-05)
(1.01394 0.00903036 6.2275e-05)
(1.01399 0.00682644 5.279e-05)
(1.01402 0.00509428 4.61e-05)
(1.01403 0.00374208 3.54928e-05)
(1.01405 0.00272641 2.83695e-05)
(1.01406 0.00193607 1.43029e-05)
(1.0141 0.00142179 1.08319e-05)
(1.00119 0.293434 -0.100044)
(1.00499 0.29526 -0.0992872)
(1.00614 0.296242 -0.105475)
(1.00719 0.30541 -0.111779)
(1.00868 0.310006 -0.109967)
(1.00757 0.310481 -0.105762)
(1.00552 0.309869 -0.0943014)
(1.00019 0.303261 -0.0826948)
(0.993068 0.294616 -0.0744547)
(0.98536 0.285395 -0.0792685)
(0.979042 0.282114 -0.0861403)
(0.972545 0.281318 -0.0911231)
(0.965371 0.279775 -0.0922521)
(0.956665 0.276222 -0.0914534)
(0.94797 0.27032 -0.0903231)
(0.943328 0.26208 -0.0884479)
(0.944472 0.250802 -0.0856298)
(0.9497 0.238526 -0.0820075)
(0.957292 0.225982 -0.0778243)
(0.964724 0.214415 -0.0735235)
(0.971346 0.203405 -0.0693077)
(0.976453 0.193065 -0.0654365)
(0.98068 0.183065 -0.0619098)
(0.984247 0.173185 -0.0584292)
(0.987383 0.163257 -0.0549881)
(0.9901 0.153308 -0.0515461)
(0.992593 0.143128 -0.0480129)
(0.994788 0.133054 -0.0445563)
(0.996837 0.122478 -0.0409393)
(0.998742 0.112252 -0.0374715)
(1.00065 0.101458 -0.0338299)
(1.00246 0.0908159 -0.0302246)
(1.00424 0.080389 -0.0267228)
(1.00606 0.0701642 -0.0232613)
(1.00782 0.0603693 -0.0199823)
(1.00939 0.0512054 -0.0169221)
(1.01071 0.0428906 -0.0141073)
(1.01178 0.0354191 -0.0116036)
(1.01259 0.0290058 -0.0094318)
(1.01317 0.0232404 -0.00751277)
(1.01348 0.0182128 -0.005889)
(1.0137 0.0143021 -0.00460662)
(1.01385 0.0111121 -0.0035695)
(1.01395 0.00851967 -0.00273203)
(1.01401 0.00643728 -0.00206435)
(1.01403 0.00480216 -0.00153825)
(1.01404 0.00352576 -0.00112857)
(1.01405 0.00256746 -0.000822954)
(1.01406 0.00182219 -0.000586788)
(1.01411 0.00133817 -0.000427843)
(0.999489 0.247089 -0.184917)
(1.00667 0.246638 -0.190038)
(1.0089 0.244677 -0.191231)
(1.00822 0.248582 -0.194161)
(1.00767 0.256636 -0.193192)
(1.00623 0.265114 -0.18938)
(1.00405 0.265449 -0.18531)
(1.00031 0.261112 -0.178989)
(0.992651 0.255252 -0.171457)
(0.98495 0.247617 -0.166699)
(0.978916 0.241453 -0.168758)
(0.972389 0.239627 -0.171669)
(0.965268 0.238075 -0.172386)
(0.956573 0.234911 -0.170848)
(0.94782 0.22933 -0.16843)
(0.943186 0.221464 -0.164461)
(0.944362 0.211626 -0.158816)
(0.949636 0.201238 -0.15196)
(0.957247 0.190799 -0.144372)
(0.964681 0.181229 -0.136813)
(0.971367 0.172099 -0.129552)
(0.976521 0.163498 -0.122771)
(0.980745 0.155126 -0.116313)
(0.984296 0.146852 -0.10992)
(0.987417 0.138507 -0.103539)
(0.99012 0.130118 -0.0971577)
(0.992595 0.121524 -0.0905969)
(0.99478 0.113001 -0.0841595)
(0.996821 0.104053 -0.0774005)
(0.998721 0.0953722 -0.0709305)
(1.00064 0.0862232 -0.0641381)
(1.00246 0.077162 -0.0573905)
(1.00425 0.0682738 -0.0508041)
(1.00607 0.0595787 -0.0443153)
(1.00783 0.0512452 -0.038127)
(1.00941 0.0434455 -0.0323384)
(1.01072 0.0363761 -0.0270497)
(1.01179 0.0300169 -0.022324)
(1.0126 0.0245684 -0.0182469)
(1.01317 0.0196756 -0.0145691)
(1.01348 0.0154407 -0.0114295)
(1.01371 0.0120951 -0.00900466)
(1.01385 0.00938811 -0.00700913)
(1.01395 0.00719635 -0.00538422)
(1.014 0.00543655 -0.00407883)
(1.01403 0.00405586 -0.00304953)
(1.01404 0.00297627 -0.00224203)
(1.01405 0.00216724 -0.00163864)
(1.01406 0.00153549 -0.00116298)
(1.01411 0.0011234 -0.000846064)
(0.999469 0.410082 0.288002)
(1.00041 0.4239 0.293693)
(1.00429 0.428438 0.294769)
(1.00671 0.427465 0.291019)
(1.00692 0.429847 0.2813)
(1.00749 0.425258 0.272502)
(1.00689 0.426164 0.274017)
(1.00493 0.426401 0.280452)
(1.0016 0.427113 0.287403)
(0.999927 0.421191 0.289409)
(0.992846 0.41235 0.293119)
(0.987808 0.405857 0.295455)
(0.981375 0.398248 0.291156)
(0.973085 0.387775 0.282213)
(0.966235 0.375634 0.271572)
(0.963434 0.361448 0.260662)
(0.964442 0.347208 0.249635)
(0.967401 0.332158 0.238965)
(0.971715 0.317071 0.228384)
(0.976186 0.302459 0.218364)
(0.980539 0.288436 0.208831)
(0.984329 0.274864 0.199572)
(0.987451 0.261648 0.190425)
(0.989977 0.248722 0.181401)
(0.992073 0.235872 0.172297)
(0.993786 0.223032 0.163077)
(0.99524 0.209896 0.153542)
(0.996503 0.197165 0.144295)
(0.997592 0.183886 0.134509)
(0.998622 0.170825 0.124822)
(0.999753 0.157144 0.114589)
(1.00093 0.14284 0.103892)
(1.00222 0.128268 0.0929987)
(1.00366 0.113608 0.0821076)
(1.00521 0.0992219 0.0714954)
(1.00669 0.0854398 0.0614034)
(1.008 0.0726616 0.0520799)
(1.00913 0.0610122 0.0435543)
(1.01003 0.0507936 0.036084)
(1.01069 0.0413494 0.0293616)
(1.01112 0.0331287 0.0235639)
(1.01139 0.0263684 0.0186657)
(1.01155 0.0207435 0.0146469)
(1.01166 0.01611 0.0113785)
(1.01171 0.0123304 0.00872079)
(1.01172 0.00932418 0.00660802)
(1.01172 0.00693248 0.00491409)
(1.01173 0.00512465 0.00363259)
(1.01174 0.00367116 0.00259075)
(1.0118 0.00269244 0.00190111)
(1.00199 0.476881 0.151975)
(1.00144 0.478904 0.166611)
(1.00494 0.477339 0.179341)
(1.0069 0.476334 0.175437)
(1.00774 0.473855 0.163056)
(1.00486 0.477595 0.148718)
(1.00449 0.480513 0.135523)
(1.00312 0.487075 0.13487)
(1.00198 0.489164 0.139918)
(1.00174 0.485227 0.142863)
(0.996821 0.479382 0.150262)
(0.987374 0.466704 0.157824)
(0.979579 0.454829 0.162081)
(0.971434 0.444231 0.159821)
(0.964582 0.431988 0.154423)
(0.962147 0.419085 0.144212)
(0.963429 0.402663 0.137489)
(0.966329 0.385663 0.129988)
(0.970789 0.368269 0.123325)
(0.975297 0.351489 0.117533)
(0.979826 0.335365 0.112555)
(0.98366 0.319743 0.10785)
(0.986881 0.304506 0.103047)
(0.98951 0.2896 0.0982601)
(0.991753 0.274782 0.0933381)
(0.993642 0.259976 0.0883026)
(0.995287 0.244851 0.0829952)
(0.996625 0.230053 0.0779474)
(0.997741 0.214497 0.0724903)
(0.998796 0.199206 0.067208)
(0.99992 0.183222 0.0616963)
(1.00106 0.166504 0.0559268)
(1.00228 0.149518 0.0500599)
(1.00367 0.132476 0.0442171)
(1.00517 0.115773 0.0385177)
(1.00662 0.099785 0.0331009)
(1.0079 0.0849733 0.0281621)
(1.00902 0.0714126 0.0236709)
(1.0099 0.0595422 0.0197923)
(1.01057 0.0485707 0.0161947)
(1.01101 0.0389703 0.0130239)
(1.01129 0.031021 0.0104009)
(1.01147 0.0244143 0.00822326)
(1.01159 0.0189686 0.00642876)
(1.01165 0.0145249 0.00495499)
(1.01167 0.0109907 0.00378087)
(1.01168 0.00818003 0.00282023)
(1.01169 0.00604904 0.00209891)
(1.01171 0.00433854 0.00148621)
(1.01174 0.00322766 0.00109367)
(1.00177 0.501968 -0.0026276)
(1.00183 0.499866 0.01193)
(1.00057 0.498217 0.0307185)
(1.00526 0.496492 0.0314429)
(1.00934 0.496115 0.0242342)
(1.00935 0.493545 0.0131883)
(1.00274 0.49232 0.00723522)
(1.00199 0.496707 -0.000708565)
(0.998726 0.50698 -0.00177045)
(0.998999 0.508696 -0.00401121)
(0.998047 0.506202 -0.00208886)
(0.991973 0.498367 0.00285189)
(0.981866 0.483419 0.00839257)
(0.972344 0.469697 0.0126819)
(0.965143 0.455439 0.0136056)
(0.962397 0.441107 0.0109671)
(0.963368 0.422963 0.00835664)
(0.966305 0.404538 0.0060408)
(0.970764 0.38584 0.00461076)
(0.975261 0.368078 0.00399612)
(0.979625 0.351235 0.00393065)
(0.983455 0.334926 0.00405651)
(0.986702 0.319052 0.00398081)
(0.989354 0.303516 0.00381348)
(0.991599 0.28807 0.00352714)
(0.993491 0.272628 0.0031579)
(0.99513 0.256842 0.00270451)
(0.996515 0.241379 0.0023849)
(0.997707 0.225022 0.00186789)
(0.998804 0.208966 0.00145196)
(0.999928 0.19215 0.0010171)
(1.00105 0.174588 0.000627059)
(1.00225 0.156758 0.000277685)
(1.00363 0.138874 6.01792e-06)
(1.00512 0.121362 -0.000201021)
(1.00659 0.104608 -0.000311495)
(1.0079 0.0890693 -0.000280578)
(1.00904 0.0748308 -0.000198156)
(1.00995 0.0623277 -2.66168e-05)
(1.01065 0.0508146 -4.41715e-07)
(1.01109 0.0408656 2.10637e-05)
(1.01135 0.0324974 9.287e-05)
(1.01153 0.0255375 0.000123811)
(1.01166 0.0198404 0.000123845)
(1.01171 0.0151926 0.00010885)
(1.01173 0.0114966 9.71624e-05)
(1.01174 0.00855523 7.58659e-05)
(1.01175 0.00632409 5.99422e-05)
(1.01176 0.00453443 2.7096e-05)
(1.01181 0.00339995 1.68929e-05)
(1.00189 0.474643 -0.15627)
(1.0017 0.474155 -0.141867)
(0.998894 0.465862 -0.121631)
(1.00217 0.464314 -0.125297)
(1.00496 0.467571 -0.13755)
(1.0111 0.471796 -0.162022)
(1.00919 0.475293 -0.1837)
(1.0039 0.476625 -0.185159)
(1.00195 0.477808 -0.179867)
(0.997576 0.48669 -0.173343)
(0.993953 0.484198 -0.163227)
(0.989811 0.477177 -0.15641)
(0.982049 0.46372 -0.147925)
(0.972751 0.448549 -0.139096)
(0.965224 0.433493 -0.130674)
(0.961816 0.418548 -0.125235)
(0.962525 0.401368 -0.121797)
(0.96565 0.384087 -0.118587)
(0.970344 0.366527 -0.114783)
(0.975098 0.349837 -0.11035)
(0.979534 0.334051 -0.105602)
(0.983392 0.318654 -0.100707)
(0.986672 0.303704 -0.0960211)
(0.989342 0.289045 -0.0914761)
(0.991578 0.274422 -0.0870334)
(0.993434 0.25978 -0.08263)
(0.995035 0.244773 -0.0781293)
(0.996412 0.230087 -0.0736048)
(0.997596 0.214478 -0.0689768)
(0.998677 0.199148 -0.0643505)
(0.999798 0.183081 -0.0595338)
(1.00093 0.166297 -0.05442)
(1.00216 0.149276 -0.049134)
(1.00356 0.132201 -0.0437274)
(1.00508 0.115492 -0.0383621)
(1.00658 0.0995139 -0.03314)
(1.00793 0.0846824 -0.0281772)
(1.0091 0.0710943 -0.0235964)
(1.01005 0.0590995 -0.0194895)
(1.01076 0.0481755 -0.0158336)
(1.01119 0.0387845 -0.0126712)
(1.01145 0.0307945 -0.0100188)
(1.01162 0.0241611 -0.0078229)
(1.01174 0.0187593 -0.00605454)
(1.01179 0.0143631 -0.00462908)
(1.0118 0.0108688 -0.00349664)
(1.01179 0.00808633 -0.00259755)
(1.0118 0.00597599 -0.00192264)
(1.0118 0.00428347 -0.00138577)
(1.01187 0.00321407 -0.00103066)
(1.0014 0.407941 -0.29631)
(1.00477 0.417788 -0.281886)
(1.00194 0.423157 -0.246843)
(1.00172 0.412129 -0.235923)
(1.0039 0.403651 -0.236776)
(1.0059 0.401773 -0.246686)
(1.00734 0.404835 -0.26811)
(1.00504 0.411318 -0.290736)
(1.00259 0.409466 -0.297064)
(1.00033 0.41228 -0.295346)
(0.994825 0.415111 -0.290426)
(0.989581 0.414742 -0.282947)
(0.981883 0.40584 -0.273879)
(0.97248 0.392509 -0.263795)
(0.965041 0.377573 -0.255269)
(0.961977 0.36246 -0.247245)
(0.962886 0.346243 -0.240376)
(0.966068 0.330255 -0.232999)
(0.970763 0.314384 -0.224671)
(0.975569 0.299599 -0.21565)
(0.980043 0.285851 -0.206415)
(0.983862 0.272591 -0.19709)
(0.987067 0.259752 -0.187932)
(0.989648 0.247222 -0.178963)
(0.99177 0.234706 -0.170069)
(0.993491 0.222161 -0.161196)
(0.994938 0.209288 -0.152049)
(0.996258 0.196703 -0.143057)
(0.997422 0.183307 -0.133649)
(0.998481 0.170146 -0.124466)
(0.999615 0.156344 -0.114873)
(1.00078 0.141886 -0.104736)
(1.00206 0.127237 -0.0943198)
(1.00351 0.112556 -0.0837604)
(1.00508 0.098208 -0.073347)
(1.00661 0.0845081 -0.0632985)
(1.00798 0.0718075 -0.0538674)
(1.00916 0.0601875 -0.0452086)
(1.0101 0.0499391 -0.0375462)
(1.01079 0.0407002 -0.0305436)
(1.01122 0.032715 -0.0244842)
(1.01148 0.0259236 -0.0195039)
(1.01164 0.0203041 -0.0153483)
(1.01175 0.0157518 -0.0119402)
(1.01179 0.0120531 -0.00916228)
(1.0118 0.00911675 -0.00694812)
(1.01179 0.0067766 -0.00517587)
(1.01179 0.00500323 -0.00384044)
(1.01178 0.00358256 -0.00274991)
(1.01186 0.00266965 -0.00202658)
(1.0011 0.50203 0.437513)
(1.01497 0.5621 0.450555)
(1.02734 0.58496 0.421673)
(1.01859 0.592855 0.423408)
(1.01111 0.595777 0.438631)
(1.00233 0.583056 0.455873)
(0.996859 0.570728 0.466718)
(0.995896 0.552202 0.469911)
(0.993084 0.530841 0.462819)
(0.990587 0.508243 0.451493)
(0.990129 0.490707 0.439399)
(0.993931 0.478213 0.425725)
(0.998942 0.467196 0.409509)
(1.0029 0.454539 0.391285)
(1.00506 0.439433 0.371258)
(1.00547 0.421643 0.350682)
(1.00437 0.404667 0.330914)
(1.00264 0.387746 0.314963)
(1.00106 0.371733 0.301756)
(1.00022 0.3565 0.289758)
(1.00012 0.341956 0.278578)
(1.00027 0.327587 0.267597)
(1.00054 0.31337 0.256771)
(1.00081 0.299298 0.246055)
(1.00099 0.285281 0.235308)
(1.00112 0.271198 0.224422)
(1.00115 0.256929 0.213268)
(1.00125 0.242592 0.201888)
(1.00129 0.227944 0.190202)
(1.00131 0.212844 0.177979)
(1.00149 0.197522 0.165519)
(1.00175 0.181026 0.151915)
(1.00216 0.164007 0.137629)
(1.00267 0.14672 0.123004)
(1.00337 0.129516 0.108459)
(1.00408 0.112758 0.0943371)
(1.00476 0.0969174 0.0809084)
(1.00534 0.0823121 0.0684326)
(1.00587 0.0690658 0.0570533)
(1.00624 0.0572436 0.0470938)
(1.00647 0.0463739 0.0381756)
(1.0066 0.0372592 0.0305781)
(1.00667 0.0295744 0.024119)
(1.00673 0.023148 0.0188006)
(1.00675 0.0178556 0.0144726)
(1.00675 0.0135997 0.0109942)
(1.00672 0.0102107 0.00822414)
(1.00671 0.0075806 0.0060645)
(1.0067 0.00552007 0.00437373)
(1.00674 0.00398074 0.00311283)
(1.00587 0.668945 0.208868)
(1.01723 0.686781 0.204258)
(1.01922 0.711356 0.208075)
(1.01554 0.71713 0.215832)
(1.00672 0.724517 0.226165)
(1.00206 0.718917 0.235645)
(0.99896 0.701658 0.24217)
(0.995679 0.674292 0.246124)
(0.994651 0.647127 0.238822)
(0.99564 0.619443 0.224264)
(0.994566 0.598771 0.214507)
(0.995918 0.579907 0.210804)
(0.999627 0.563272 0.206347)
(1.00334 0.550997 0.198356)
(1.0055 0.538444 0.187092)
(1.00788 0.520405 0.173328)
(1.0094 0.504778 0.158827)
(1.0075 0.487242 0.148462)
(1.00602 0.469984 0.140929)
(1.00483 0.452807 0.135013)
(1.00418 0.436019 0.129681)
(1.00372 0.419388 0.124556)
(1.00344 0.402673 0.119523)
(1.00325 0.385965 0.114577)
(1.00315 0.369083 0.109642)
(1.003 0.352013 0.104672)
(1.00288 0.334519 0.0996137)
(1.00273 0.317 0.0945138)
(1.00255 0.298516 0.0892795)
(1.00246 0.279642 0.0838426)
(1.00243 0.26023 0.0783337)
(1.00234 0.239594 0.0724646)
(1.00228 0.217792 0.0662027)
(1.0024 0.19558 0.0596966)
(1.00276 0.173458 0.0530737)
(1.00316 0.15176 0.0465507)
(1.0035 0.131213 0.0403807)
(1.00388 0.111935 0.0345402)
(1.00419 0.0945695 0.0293584)
(1.00451 0.0785992 0.0245289)
(1.00476 0.0641907 0.0201189)
(1.00493 0.0517138 0.0163803)
(1.00502 0.0411266 0.013186)
(1.00511 0.032288 0.0104571)
(1.00515 0.0249741 0.00815259)
(1.00516 0.0191199 0.00629805)
(1.00517 0.0143667 0.0047503)
(1.00518 0.0107702 0.00358721)
(1.00524 0.00776665 0.00255294)
(1.00522 0.00588816 0.00192271)
(1.00418 0.703194 -0.0167901)
(1.02329 0.709794 -0.0547885)
(1.0157 0.731529 -0.0602495)
(1.01195 0.743955 -0.0542615)
(1.0097 0.757842 -0.0419111)
(0.999999 0.762833 -0.0221954)
(0.989451 0.753362 -0.00319703)
(0.98545 0.735385 0.0127064)
(0.985696 0.713524 0.0246496)
(0.991164 0.685129 0.0245395)
(0.997988 0.658 0.0132688)
(1.00136 0.635309 0.00536918)
(1.00474 0.615127 0.0057581)
(1.00887 0.597262 0.00355792)
(1.01039 0.577921 -0.00111187)
(1.01057 0.557508 -0.00543902)
(1.00986 0.53264 -0.0130722)
(1.00774 0.510809 -0.0173986)
(1.00618 0.491015 -0.0195317)
(1.00501 0.472656 -0.0200008)
(1.00436 0.455 -0.0197125)
(1.00392 0.437603 -0.0191764)
(1.00364 0.42021 -0.0185155)
(1.00342 0.402807 -0.0177)
(1.00328 0.38522 -0.0168219)
(1.00315 0.367411 -0.0158106)
(1.00303 0.349144 -0.0148017)
(1.00289 0.330888 -0.0138105)
(1.00267 0.311697 -0.0126467)
(1.00255 0.292157 -0.0115496)
(1.00248 0.272156 -0.0102331)
(1.00239 0.250858 -0.00894227)
(1.00234 0.228293 -0.00769085)
(1.00243 0.205182 -0.00658334)
(1.00273 0.182088 -0.00567333)
(1.00313 0.159423 -0.00477488)
(1.00357 0.13789 -0.00380382)
(1.00401 0.117675 -0.00292218)
(1.00439 0.0994413 -0.00198872)
(1.00473 0.0825612 -0.00145507)
(1.00498 0.06758 -0.0011047)
(1.00513 0.0545896 -0.000671729)
(1.00524 0.0433934 -0.000373924)
(1.00532 0.034091 -0.000217272)
(1.00536 0.0263837 -0.000144474)
(1.00536 0.0202098 -9.43877e-05)
(1.00536 0.0151806 -6.67563e-05)
(1.00537 0.0113871 -4.39504e-05)
(1.0054 0.00819125 -6.34163e-05)
(1.00544 0.00628402 -5.45604e-05)
(1.00637 0.657128 -0.227152)
(1.02398 0.66379 -0.283284)
(1.01996 0.673378 -0.280228)
(1.00737 0.684419 -0.259313)
(1.00509 0.685993 -0.240101)
(1.00894 0.689229 -0.222189)
(1.00384 0.6817 -0.205473)
(0.994897 0.665801 -0.190885)
(0.987885 0.653083 -0.180374)
(0.989052 0.636655 -0.171621)
(0.993248 0.613276 -0.172658)
(0.998824 0.587249 -0.175585)
(1.00317 0.566325 -0.175707)
(1.00607 0.548607 -0.172123)
(1.00782 0.531815 -0.170513)
(1.00801 0.51643 -0.16997)
(1.00761 0.497775 -0.171553)
(1.00645 0.479419 -0.171155)
(1.00539 0.461677 -0.168807)
(1.00456 0.44462 -0.164861)
(1.00408 0.428137 -0.159879)
(1.00375 0.41179 -0.154372)
(1.00355 0.39531 -0.14859)
(1.0034 0.378831 -0.142583)
(1.00329 0.362165 -0.136367)
(1.00318 0.345365 -0.129932)
(1.00306 0.328115 -0.123235)
(1.00294 0.310956 -0.116508)
(1.00268 0.29296 -0.10933)
(1.00248 0.274669 -0.102035)
(1.00236 0.256106 -0.094376)
(1.00227 0.236384 -0.0863365)
(1.00226 0.215339 -0.0778938)
(1.00238 0.193681 -0.0693731)
(1.00272 0.172004 -0.0610825)
(1.00317 0.150758 -0.0530146)
(1.00368 0.130493 -0.0453105)
(1.0042 0.11143 -0.0381803)
(1.00469 0.0941087 -0.0317132)
(1.00508 0.0781664 -0.0259877)
(1.0053 0.0641381 -0.0209844)
(1.00541 0.051835 -0.0167286)
(1.00549 0.0411938 -0.0131411)
(1.00556 0.0323611 -0.0102336)
(1.00557 0.0250565 -0.00788118)
(1.00555 0.0192067 -0.00601214)
(1.00553 0.0144362 -0.00450152)
(1.00551 0.0108335 -0.00336612)
(1.0055 0.00779123 -0.0024406)
(1.00557 0.00598013 -0.00186502)
(1.00301 0.558923 -0.42604)
(1.03039 0.532371 -0.489464)
(1.02215 0.54268 -0.529177)
(1.01298 0.569376 -0.528835)
(0.997608 0.597553 -0.498316)
(0.992597 0.61202 -0.466572)
(0.993079 0.619188 -0.43589)
(0.994042 0.609559 -0.4123)
(0.99018 0.593999 -0.392886)
(0.987511 0.578158 -0.378334)
(0.991438 0.560341 -0.370044)