<VTKFile type="UnstructuredGrid" version="0.1" byte_order="LittleEndian">
   <UnstructuredGrid>
      <Piece NumberOfPoints="18" NumberOfCells="8">
         <Points>
            <DataArray type="Float64" Name="Position" NumberOfComponents="3" format="ascii">
              0.000000000e+00  1.000000000e+00  0.000000000e+00  0.000000000e+00  5.000000000e-01  0.000000000e+00  5.000000000e-01  1.000000000e+00  0.000000000e+00  5.000000000e-01  5.000000000e-01  0.000000000e+00  0.000000000e+00  0.000000000e+00  0.000000000e+00  1.000000000e+00  1.000000000e+00  0.000000000e+00  1.000000000e+00  5.000000000e-01  0.000000000e+00  5.000000000e-01  0.000000000e+00  0.000000000e+00  1.000000000e+00  0.000000000e+00  0.000000000e+00  1.500000000e+00  1.000000000e+00  0.000000000e+00  1.500000000e+00  5.000000000e-01  0.000000000e+00  1.500000000e+00  0.000000000e+00  0.000000000e+00  2.000000000e+00  1.000000000e+00  0.000000000e+00  2.000000000e+00  5.000000000e-01  0.000000000e+00  2.000000000e+00  0.000000000e+00  0.000000000e+00  1.000000000e+00  1.000000000e+00  0.000000000e+00  1.000000000e+00  5.000000000e-01  0.000000000e+00  1.000000000e+00  0.000000000e+00  0.000000000e+00
            </DataArray>
         </Points>
         <Cells>
            <DataArray type="Int32" Name="connectivity" NumberOfComponents="1" format="ascii">
              13  10  11  14  12  9  10  13  10  16  17  11  9  15  16  10  1  3  2  0  4  7  3  1  3  6  5  2  7  8  6  3
            </DataArray>
            <DataArray type="Int32" Name="offsets" NumberOfComponents="1" format="ascii">
              4  8  12  16  20  24  28  32
            </DataArray>
            <DataArray type="UInt8" Name="types" NumberOfComponents="1" format="ascii">
              9  9  9  9  9  9  9  9
            </DataArray>
         </Cells>
         <PointData>
            <DataArray type="Float64" Name="DISPLACEMENT" NumberOfComponents="3" format="ascii">
              0.000000000e+00  3.000000000e+00  0.000000000e+00  0.000000000e+00  1.500000000e+00  0.000000000e+00  1.000000000e+00  3.000000000e+00  0.000000000e+00  1.000000000e+00  1.500000000e+00  0.000000000e+00  0.000000000e+00  0.000000000e+00  0.000000000e+00  2.000000000e+00  3.000000000e+00  0.000000000e+00  2.000000000e+00  1.500000000e+00  0.000000000e+00  1.000000000e+00  0.000000000e+00  0.000000000e+00  2.000000000e+00  0.000000000e+00  0.000000000e+00  3.000000000e+00  3.000000000e+00  0.000000000e+00  3.000000000e+00  1.500000000e+00  0.000000000e+00  3.000000000e+00  0.000000000e+00  0.000000000e+00  4.000000000e+00  3.000000000e+00  0.000000000e+00  4.000000000e+00  1.500000000e+00  0.000000000e+00  4.000000000e+00  0.000000000e+00  0.000000000e+00  2.000000000e+00  3.000000000e+00  0.000000000e+00  2.000000000e+00  1.500000000e+00  0.000000000e+00  2.000000000e+00  0.000000000e+00  0.000000000e+00
            </DataArray>
            <DataArray type="Float64" Name="VELOCITY" NumberOfComponents="3" format="ascii">
              0.000000000e+00  6.000000000e+00  0.000000000e+00  0.000000000e+00  3.000000000e+00  0.000000000e+00  2.500000000e+00  6.000000000e+00  0.000000000e+00  2.500000000e+00  3.000000000e+00  0.000000000e+00  0.000000000e+00  0.000000000e+00  0.000000000e+00  5.000000000e+00  6.000000000e+00  0.000000000e+00  5.000000000e+00  3.000000000e+00  0.000000000e+00  2.500000000e+00  0.000000000e+00  0.000000000e+00  5.000000000e+00  0.000000000e+00  0.000000000e+00  7.500000000e+00  6.000000000e+00  0.000000000e+00  7.500000000e+00  3.000000000e+00  0.000000000e+00  7.500000000e+00  0.000000000e+00  0.000000000e+00  1.000000000e+01  6.000000000e+00  0.000000000e+00  1.000000000e+01  3.000000000e+00  0.000000000e+00  1.000000000e+01  0.000000000e+00  0.000000000e+00  5.000000000e+00  6.000000000e+00  0.000000000e+00  5.000000000e+00  3.000000000e+00  0.000000000e+00  5.000000000e+00  0.000000000e+00  0.000000000e+00
            </DataArray>
            <DataArray type="Float64" Name="PRESSURE" NumberOfComponents="1" format="ascii">
              8.000000000e+00  1.600000000e+01  2.400000000e+01  3.200000000e+01  4.000000000e+01  4.800000000e+01  5.600000000e+01  6.400000000e+01  7.200000000e+01  8.000000000e+01  8.800000000e+01  9.600000000e+01  1.040000000e+02  1.120000000e+02  1.200000000e+02  1.280000000e+02  1.360000000e+02  1.440000000e+02
            </DataArray>
            <DataArray type="Float64" Name="hist_exp" NumberOfComponents="1" format="ascii">
              2.400000000e+01  4.800000000e+01  7.200000000e+01  9.600000000e+01  1.200000000e+02  1.440000000e+02  1.680000000e+02  1.920000000e+02  2.160000000e+02  2.400000000e+02  2.640000000e+02  2.880000000e+02  3.120000000e+02  3.360000000e+02  3.600000000e+02  3.840000000e+02  4.080000000e+02  4.320000000e+02
            </DataArray>
         </PointData>
         <CellData>
            <DataArray type="Float64" Name="DETERMINANT" NumberOfComponents="3" format="ascii">
              0.000000000e+00  0.000000000e+00  0.000000000e+00  1.890000000e-01  1.236000000e+00  2.365000000e+00  3.780000000e-01  2.472000000e+00  4.730000000e+00  5.670000000e-01  3.708000000e+00  7.095000000e+00  7.560000000e-01  4.944000000e+00  9.460000000e+00  9.450000000e-01  6.180000000e+00  1.182500000e+01  1.134000000e+00  7.416000000e+00  1.419000000e+01  1.323000000e+00  8.652000000e+00  1.655500000e+01
            </DataArray>
            <DataArray type="Float64" Name="elem_exp" NumberOfComponents="3" format="ascii">
              0.000000000e+00  0.000000000e+00  0.000000000e+00  5.670000000e-01  3.708000000e+00  7.095000000e+00  1.134000000e+00  7.416000000e+00  1.419000000e+01  1.701000000e+00  1.112400000e+01  2.128500000e+01  2.268000000e+00  1.483200000e+01  2.838000000e+01  2.835000000e+00  1.854000000e+01  3.547500000e+01  3.402000000e+00  2.224800000e+01  4.257000000e+01  3.969000000e+00  2.595600000e+01  4.966500000e+01
            </DataArray>
         </CellData>
      </Piece>
   </UnstructuredGrid>
</VTKFile>
