# vtk DataFile Version 4.0
vtk output
ASCII
DATASET UNSTRUCTURED_GRID
POINTS 18 float
0.00000000e+00 1.00000000e+00 0.00000000e+00 
0.00000000e+00 5.00000000e-01 0.00000000e+00 
5.00000000e-01 1.00000000e+00 0.00000000e+00 
5.00000000e-01 5.00000000e-01 0.00000000e+00 
0.00000000e+00 0.00000000e+00 0.00000000e+00 
1.00000000e+00 1.00000000e+00 0.00000000e+00 
1.00000000e+00 5.00000000e-01 0.00000000e+00 
5.00000000e-01 0.00000000e+00 0.00000000e+00 
1.00000000e+00 0.00000000e+00 0.00000000e+00 
1.50000000e+00 1.00000000e+00 0.00000000e+00 
1.50000000e+00 5.00000000e-01 0.00000000e+00 
1.50000000e+00 0.00000000e+00 0.00000000e+00 
2.00000000e+00 1.00000000e+00 0.00000000e+00 
2.00000000e+00 5.00000000e-01 0.00000000e+00 
2.00000000e+00 0.00000000e+00 0.00000000e+00 
1.00000000e+00 1.00000000e+00 0.00000000e+00 
1.00000000e+00 5.00000000e-01 0.00000000e+00 
1.00000000e+00 0.00000000e+00 0.00000000e+00 

CELLS 8 40
4 13 10 11 14
4 12 9 10 13
4 10 16 17 11
4 9 15 16 10
4 1 3 2 0
4 4 7 3 1
4 3 6 5 2
4 7 8 6 3

CELL_TYPES 8
9
9
9
9
9
9
9
9
POINT_DATA 18
FIELD FieldData 4
PRESSURE 1 18  float
0.00000000e+00
0.00000000e+00
1.51600003e+00
1.51600003e+00
0.00000000e+00
3.03200006e+00
3.03200006e+00
1.51600003e+00
3.03200006e+00
4.54799986e+00
4.54799986e+00
4.54799986e+00
6.06400013e+00
6.06400013e+00
6.06400013e+00
3.03200006e+00
3.03200006e+00
3.03200006e+00
DISPLACEMENT 3 18  float
0.00000000e+00 1.00000000e+00 0.00000000e+00 
0.00000000e+00 5.00000000e-01 0.00000000e+00 
3.79000000e-01 1.00000000e+00 0.00000000e+00 
3.79000000e-01 5.00000000e-01 0.00000000e+00 
0.00000000e+00 0.00000000e+00 0.00000000e+00 
7.58000000e-01 1.00000000e+00 0.00000000e+00 
7.58000000e-01 5.00000000e-01 0.00000000e+00 
3.79000000e-01 0.00000000e+00 0.00000000e+00 
7.58000000e-01 0.00000000e+00 0.00000000e+00 
1.13700000e+00 1.00000000e+00 0.00000000e+00 
1.13700000e+00 5.00000000e-01 0.00000000e+00 
1.13700000e+00 0.00000000e+00 0.00000000e+00 
1.51600000e+00 1.00000000e+00 0.00000000e+00 
1.51600000e+00 5.00000000e-01 0.00000000e+00 
1.51600000e+00 0.00000000e+00 0.00000000e+00 
7.58000000e-01 1.00000000e+00 0.00000000e+00 
7.58000000e-01 5.00000000e-01 0.00000000e+00 
7.58000000e-01 0.00000000e+00 0.00000000e+00 
VELOCITY 3 18  float
0.00000000e+00 2.00000000e+00 0.00000000e+00 
0.00000000e+00 1.00000000e+00 0.00000000e+00 
1.00000000e+00 2.00000000e+00 0.00000000e+00 
1.00000000e+00 1.00000000e+00 0.00000000e+00 
0.00000000e+00 0.00000000e+00 0.00000000e+00 
2.00000000e+00 2.00000000e+00 0.00000000e+00 
2.00000000e+00 1.00000000e+00 0.00000000e+00 
1.00000000e+00 0.00000000e+00 0.00000000e+00 
2.00000000e+00 0.00000000e+00 0.00000000e+00 
3.00000000e+00 2.00000000e+00 0.00000000e+00 
3.00000000e+00 1.00000000e+00 0.00000000e+00 
3.00000000e+00 0.00000000e+00 0.00000000e+00 
4.00000000e+00 2.00000000e+00 0.00000000e+00 
4.00000000e+00 1.00000000e+00 0.00000000e+00 
4.00000000e+00 0.00000000e+00 0.00000000e+00 
2.00000000e+00 2.00000000e+00 0.00000000e+00 
2.00000000e+00 1.00000000e+00 0.00000000e+00 
2.00000000e+00 0.00000000e+00 0.00000000e+00 
BOUNDARY 1 18  float
1.00000000e+00
1.00000000e+00
-1.00000000e+00
-1.00000000e+00
1.00000000e+00
-1.00000000e+00
-1.00000000e+00
-1.00000000e+00
-1.00000000e+00
-1.00000000e+00
-1.00000000e+00
-1.00000000e+00
-1.00000000e+00
-1.00000000e+00
-1.00000000e+00
-1.00000000e+00
-1.00000000e+00
-1.00000000e+00
CELL_DATA 8
FIELD FieldData 1
DETERMINANT 3 8  float
0.00000000e+00 7.58000000e-01 3.03200000e+00 
1.89000000e-01 7.58000000e-01 3.03200000e+00 
3.78000000e-01 7.58000000e-01 3.03200000e+00 
5.67000000e-01 7.58000000e-01 3.03200000e+00 
7.56000000e-01 7.58000000e-01 3.03200000e+00 
9.45000000e-01 7.58000000e-01 3.03200000e+00 
1.13400000e+00 7.58000000e-01 3.03200000e+00 
1.32300000e+00 7.58000000e-01 3.03200000e+00 
