/*--------------------------------*- C++ -*----------------------------------*\
| =========                 |                                                 |
| \\      /  F ield         | OpenFOAM: The Open Source CFD Toolbox           |
|  \\    /   O peration     | Version:  4.1                                   |
|   \\  /    A nd           | Web:      www.OpenFOAM.org                      |
|    \\/     M anipulation  |                                                 |
\*---------------------------------------------------------------------------*/
FoamFile
{
    version     2.0;
    format      ascii;
    class       volScalarField;
    location    "239";
    object      epsilon;
}
// * * * * * * * * * * * * * * * * * * * * * * * * * * * * * * * * * * * * * //

dimensions      [0 2 -3 0 0 0 0];

internalField   nonuniform List<scalar> 
1600
(
8.66056e-05
0.000102985
0.000123953
0.000139456
0.000156059
0.000166478
0.000180867
0.000197812
0.000222109
0.00024955
0.000279825
0.000310877
0.000339976
0.000364792
0.000383474
0.000397734
0.000409764
0.000421696
0.000436594
0.000453312
0.000474369
0.00049577
0.000520589
0.000543552
0.000568993
0.000590871
0.000614298
0.000633083
0.000652653
0.000667067
0.000682212
0.000692053
0.000702472
0.000707684
0.000713596
0.000714806
0.00071656
0.000715472
0.000713134
0.000709502
0.000704239
0.000697893
0.000691437
0.000685053
0.000675648
0.000667969
0.000652812
0.000642285
0.000637141
0.000646202
8.69052e-05
0.000102389
0.000122845
0.000138841
0.00015504
0.000165546
0.000179596
0.000196972
0.000221497
0.000249529
0.000280472
0.000311646
0.000339715
0.00036357
0.000382099
0.000396334
0.000408357
0.000420747
0.000435898
0.000452719
0.000473807
0.000495282
0.000520145
0.000543101
0.000568422
0.000590128
0.000613341
0.000632041
0.000651665
0.000666093
0.000681308
0.000691263
0.000701787
0.000707066
0.000713038
0.000714468
0.000716186
0.000715089
0.000712565
0.000708527
0.000703132
0.000696803
0.000690606
0.000684255
0.000675074
0.000667522
0.000652204
0.00064181
0.000635908
0.000644112
8.69936e-05
0.000102228
0.000121896
0.000138599
0.0001549
0.000165718
0.000179834
0.000196783
0.000221233
0.000248465
0.000279582
0.000311562
0.000340335
0.000364243
0.000382419
0.000396262
0.000407979
0.000420187
0.000435408
0.000452346
0.000473522
0.000495054
0.000520017
0.000543064
0.000568526
0.000590288
0.000613427
0.000631937
0.000651326
0.000665705
0.000681018
0.000690975
0.000701562
0.000706985
0.000713088
0.000714551
0.000716367
0.000715262
0.000712733
0.000708667
0.000703083
0.000696507
0.000690254
0.000683933
0.000674516
0.000667296
0.000652093
0.00064144
0.000636225
0.000644473
8.68688e-05
0.000103053
0.00012104
0.000137097
0.000153831
0.000164481
0.000178761
0.00019548
0.000220904
0.000248374
0.000279024
0.000311096
0.000339311
0.000363646
0.00038174
0.000395558
0.000407215
0.000419217
0.000434396
0.000451277
0.00047238
0.000493827
0.000518747
0.000541857
0.000567407
0.000589316
0.000612568
0.000631093
0.000650648
0.000664821
0.000679784
0.000689599
0.00070011
0.000705408
0.000711483
0.00071292
0.000714965
0.000713933
0.000711691
0.000707881
0.000702514
0.000696148
0.00068957
0.000683533
0.00067403
0.000666853
0.000652177
0.000641199
0.000634802
0.000642486
8.6547e-05
0.000103463
0.000123089
0.000137448
0.000153928
0.000164052
0.000177917
0.000193955
0.000218626
0.000247006
0.000277964
0.00031051
0.000339805
0.00036367
0.00038171
0.00039536
0.000406837
0.000418503
0.00043358
0.000450497
0.000471553
0.000492935
0.000517754
0.000540863
0.000566462
0.000588483
0.000611891
0.00063044
0.000649992
0.000664424
0.000679672
0.000689673
0.000700335
0.000705589
0.000711555
0.000712917
0.00071487
0.000713941
0.000711654
0.000707909
0.000702704
0.000696371
0.000689772
0.000683657
0.000674217
0.000667069
0.000652195
0.000641324
0.000635069
0.000643629
8.65126e-05
8.74996e-05
9.02522e-05
9.66778e-05
0.000105283
0.000110601
0.000113505
0.000119499
0.000126537
0.000134509
0.000143553
0.000159761
0.000173337
0.000190752
0.000211031
0.000232934
0.000256698
0.000282386
0.000310337
0.000343206
0.000375705
0.000408155
0.000440269
0.000473554
0.000506807
0.000540433
0.000573503
0.000603195
0.000631652
0.000656918
0.000681463
0.00070245
0.000722349
0.000738421
0.00075286
0.000764146
0.000773963
0.000780868
0.000787238
0.000790935
0.000791318
0.000790548
0.000787946
0.000784607
0.000778338
0.000772301
0.000764473
0.000755447
0.000740718
0.00074507
8.6501e-05
8.71789e-05
8.97726e-05
9.40605e-05
0.000100203
0.000106683
0.00011358
0.000120495
0.000130503
0.00013777
0.000144778
0.000155259
0.000172861
0.000191704
0.000211267
0.000234355
0.00025966
0.000285686
0.00031168
0.000341574
0.000373931
0.000408705
0.000441445
0.000474282
0.000506365
0.000538929
0.000570945
0.000602859
0.000633253
0.000659544
0.00068432
0.000705024
0.00072466
0.000740271
0.000754001
0.000764726
0.00077389
0.000780226
0.000784993
0.000788742
0.000791102
0.000790901
0.000789464
0.000786464
0.000780325
0.000774314
0.000765455
0.000756053
0.000741614
0.000747618
8.65287e-05
8.71478e-05
8.99002e-05
9.42578e-05
9.99265e-05
0.000107702
0.000113951
0.000119103
0.00012605
0.000136269
0.00014605
0.000156621
0.000168831
0.000187198
0.00020839
0.000232504
0.000258377
0.000284955
0.000311919
0.000341618
0.000372407
0.000406164
0.000439555
0.000473342
0.000505871
0.000538069
0.000569175
0.000599308
0.000629034
0.000655508
0.0006809
0.000702229
0.000722433
0.000738965
0.000753595
0.000764851
0.000774143
0.000780385
0.000784918
0.000787214
0.00078879
0.000788135
0.000786405
0.000783809
0.000778174
0.000773068
0.000765119
0.000755994
0.000741208
0.000745288
8.65541e-05
8.74313e-05
9.04382e-05
9.48808e-05
9.89776e-05
0.000104275
0.000115261
0.000124771
0.000128853
0.000138331
0.00014748
0.000158941
0.00017194
0.000188698
0.000207849
0.000230417
0.000256235
0.000286681
0.00031558
0.000346513
0.000377442
0.000410996
0.000445001
0.000479938
0.000513271
0.000545711
0.000576211
0.000605308
0.00063409
0.000660293
0.000685752
0.000706937
0.000727253
0.000743852
0.000759183
0.000770997
0.000780914
0.000787085
0.000791613
0.00079271
0.000793285
0.000792206
0.000789627
0.000787138
0.000781284
0.000776834
0.000768504
0.000758241
0.000744259
0.000749575
8.65192e-05
8.73524e-05
9.15541e-05
9.8262e-05
0.00010269
0.000106901
0.000112242
0.00012016
0.00012705
0.00013419
0.000147177
0.000158935
0.00017233
0.000188863
0.000207871
0.000230498
0.000255108
0.000283303
0.00031385
0.000344036
0.000374118
0.000406479
0.00043909
0.00047305
0.000506339
0.000539213
0.000570681
0.000600008
0.000628577
0.000654108
0.000679309
0.00070054
0.000720651
0.000737012
0.000751835
0.000763523
0.00077365
0.000780584
0.000785989
0.00078853
0.000788983
0.000788163
0.000785305
0.000782389
0.000776246
0.000770994
0.000763452
0.000754543
0.000740108
0.000744509
0.000107039
0.000116411
0.000141199
0.000180433
0.000214708
0.000245668
0.000280747
0.000356775
0.000429527
0.000514214
0.000601898
0.000726865
0.000890757
0.00109384
0.00123961
0.00134166
0.00144256
0.00153936
0.00163857
0.00175463
0.00185633
0.0019321
0.00198324
0.0020309
0.00207538
0.00211792
0.00214921
0.00217178
0.00217176
0.00216709
0.00215447
0.00214149
0.00211867
0.00209879
0.00206734
0.00204428
0.00201147
0.00198751
0.00195276
0.0019254
0.00187969
0.00184878
0.00179483
0.00175969
0.00170726
0.00166982
0.00162517
0.00158256
0.00154007
0.00142968
0.000106703
0.000111627
0.000128224
0.000164375
0.000206808
0.000249423
0.000286334
0.000347267
0.000433817
0.000527866
0.000616313
0.000715422
0.000826627
0.00098018
0.00117874
0.00134692
0.00146491
0.00156036
0.00163958
0.00171906
0.00180819
0.00190062
0.00196968
0.00202004
0.00205196
0.00208354
0.00210773
0.00213595
0.00215517
0.00215985
0.00215511
0.00214369
0.00211938
0.00209718
0.00206108
0.00203147
0.00198877
0.00195874
0.00191704
0.00189326
0.00185083
0.0018275
0.00178245
0.00175409
0.00170498
0.00167015
0.00161983
0.00157518
0.0015304
0.00141675
0.000106693
0.000112223
0.000125126
0.000149599
0.000200192
0.000250046
0.000283609
0.00033563
0.000396349
0.000514054
0.000620407
0.00074301
0.000848809
0.000960033
0.00109151
0.00125728
0.00140434
0.00152756
0.00162789
0.00171332
0.00178619
0.00186377
0.00193456
0.00199552
0.0020368
0.00206752
0.00208515
0.0020989
0.00210932
0.00211506
0.00211346
0.00210821
0.00209382
0.00207898
0.00204998
0.00202627
0.00198691
0.00195536
0.00190977
0.00187746
0.00183123
0.001802
0.00175515
0.00172719
0.00168146
0.0016518
0.00160593
0.00156386
0.00152007
0.00140456
0.000106657
0.000113224
0.00012628
0.000143625
0.000173905
0.00023975
0.000301848
0.000372397
0.00041377
0.000500921
0.00062327
0.000772497
0.000912457
0.00101622
0.00110612
0.00123538
0.00138131
0.00153367
0.00165666
0.00175356
0.00182212
0.00188509
0.00194877
0.0020117
0.00205887
0.00209273
0.00211042
0.00211804
0.00212113
0.00212143
0.00211827
0.0021113
0.00209674
0.00208322
0.0020576
0.00203711
0.00200159
0.00197114
0.0019253
0.00188841
0.00183867
0.00180499
0.00175444
0.00172758
0.00167775
0.00165212
0.00160811
0.0015682
0.00152506
0.00141004
0.000106676
0.000115207
0.000132853
0.000152656
0.000169764
0.00020514
0.000253878
0.000333207
0.000395282
0.0004744
0.000568923
0.000704559
0.000848908
0.00100025
0.00110911
0.00121883
0.0013279
0.0014499
0.00157065
0.00168207
0.00177089
0.00184312
0.00190159
0.00195973
0.00200791
0.00204982
0.00207749
0.0020949
0.00209919
0.00209762
0.00209151
0.00208224
0.00206309
0.0020478
0.00201997
0.00200072
0.00196881
0.00194552
0.00190752
0.00187906
0.00183153
0.00180202
0.00174877
0.00171825
0.00166776
0.00163488
0.00159249
0.00155174
0.0015098
0.00139447
0.000165958
0.000295636
0.00043722
0.000649339
0.00095536
0.00130475
0.00170736
0.00217129
0.00268546
0.00320394
0.0036403
0.00399303
0.00433584
0.00461776
0.00482371
0.00495105
0.00501474
0.00506727
0.00511859
0.00518658
0.0052289
0.00524053
0.0052273
0.00519398
0.0051395
0.00506663
0.00498281
0.00489196
0.00479631
0.00469835
0.00460001
0.00450201
0.00440388
0.00430353
0.00420294
0.00410127
0.004002
0.00390377
0.00380655
0.00370926
0.00361047
0.00351272
0.00341682
0.00332159
0.00323036
0.00314233
0.0030554
0.00297209
0.0028792
0.00275196
0.000220259
0.00041149
0.000751686
0.00104715
0.00137151
0.00176926
0.00221044
0.00264308
0.00315746
0.00359414
0.00408678
0.00439909
0.00465715
0.00490509
0.00517655
0.00538896
0.0054987
0.00554169
0.00554671
0.00555352
0.00556025
0.00555348
0.00553592
0.00550758
0.00546446
0.00540385
0.00532438
0.00523088
0.00512769
0.00502041
0.00491118
0.00479745
0.0046833
0.0045675
0.00445207
0.00433806
0.0042255
0.00412018
0.0040161
0.00392154
0.00382497
0.00373258
0.00364014
0.00354869
0.00345271
0.00336653
0.00326973
0.00317596
0.00308258
0.00284508
0.00022962
0.000355438
0.000643885
0.00095833
0.00129042
0.00166119
0.00209617
0.00254148
0.00301655
0.00353507
0.00398203
0.00437421
0.00466118
0.00485858
0.00502793
0.00519938
0.00535132
0.005456
0.00549798
0.00551643
0.00551127
0.00549564
0.00546046
0.00541181
0.00535176
0.00528466
0.00520823
0.00512433
0.0050313
0.00493471
0.00483437
0.00473329
0.00463026
0.00452857
0.00442145
0.00431425
0.00420217
0.0040912
0.00397962
0.0038732
0.0037739
0.00367571
0.00358367
0.00349438
0.00340533
0.00331781
0.0032359
0.00313484
0.00305188
0.0027971
0.000232195
0.000326126
0.000516791
0.000877018
0.00125056
0.00168866
0.00220604
0.00270667
0.00317353
0.00365424
0.00409573
0.00448738
0.00478505
0.00498729
0.00514116
0.00527009
0.00541665
0.0055451
0.00559691
0.00561075
0.00560805
0.00559398
0.00555607
0.00549115
0.00541605
0.00533296
0.00524896
0.00516239
0.00506998
0.00496993
0.00486941
0.00476667
0.00466411
0.00456079
0.00445389
0.00434784
0.00424054
0.00412882
0.00401848
0.00390635
0.00380141
0.00369842
0.00359778
0.00350825
0.00341408
0.00332989
0.00324925
0.00314716
0.0030657
0.00280995
0.000240458
0.000336256
0.00047096
0.000744308
0.00109572
0.00147127
0.00191499
0.00243781
0.00296985
0.00349654
0.00392743
0.00434446
0.00469468
0.00492417
0.00507799
0.00518394
0.00526202
0.00538454
0.00549337
0.00555478
0.00557083
0.00556827
0.00555158
0.00550787
0.00542707
0.00533623
0.0052347
0.00513418
0.00503421
0.00493604
0.00483296
0.00473691
0.00463182
0.00453508
0.0044302
0.00432974
0.00422751
0.00412309
0.00401871
0.00390931
0.00380162
0.00369882
0.00359769
0.0034953
0.00341289
0.00330625
0.00324097
0.00312994
0.00304969
0.00278573
0.00476301
0.00494884
0.00510582
0.00516369
0.00519031
0.00523942
0.00535425
0.00552593
0.00569901
0.00594377
0.00623738
0.00645327
0.00662516
0.00668747
0.00673402
0.00682364
0.00694649
0.00714954
0.00730702
0.0074177
0.00748288
0.00752492
0.00754732
0.00754503
0.00753079
0.00749963
0.007443
0.00738805
0.00732344
0.0072688
0.00719711
0.00713808
0.00706053
0.00699839
0.00691192
0.006839
0.00673745
0.00665006
0.00653703
0.00644155
0.00632757
0.00623491
0.00612632
0.0060434
0.00593927
0.00586587
0.00576137
0.00569939
0.00560031
0.00556857
0.0047729
0.00492193
0.00502852
0.00513783
0.0051915
0.00521823
0.00528187
0.00542082
0.00555304
0.00574915
0.00598572
0.00628451
0.00656191
0.00678434
0.00687628
0.00693481
0.00693856
0.00698961
0.00710972
0.00724192
0.00733293
0.00739201
0.00743333
0.00745713
0.00745624
0.00744262
0.00740543
0.00734339
0.00726297
0.0071955
0.00711539
0.0070482
0.00696607
0.00690155
0.00682056
0.00675681
0.00667116
0.00659787
0.00649898
0.00641252
0.00630123
0.00621002
0.00609556
0.00601051
0.00590032
0.00582824
0.00572283
0.00566375
0.00556895
0.00554988
0.00477698
0.00494018
0.00503124
0.00512513
0.00519724
0.00524615
0.00528274
0.00536806
0.00547125
0.00562682
0.00581743
0.00606389
0.0063205
0.00657868
0.00678923
0.00691248
0.00699759
0.00700221
0.00703287
0.00710538
0.00718473
0.00724867
0.007292
0.00732423
0.00732999
0.00732502
0.00731127
0.00728253
0.00722242
0.00715995
0.00707717
0.00700001
0.00691056
0.00683984
0.00675257
0.00668507
0.00659738
0.00652906
0.00643346
0.0063621
0.00626031
0.00618361
0.00607386
0.00599385
0.00588348
0.0058087
0.00570384
0.00564232
0.00554609
0.00552783
0.00477461
0.00494989
0.00504324
0.0051061
0.00516964
0.0052452
0.00527506
0.00534298
0.00545071
0.00562106
0.00573642
0.00591996
0.00613688
0.006367
0.00659722
0.0067862
0.00695257
0.00703649
0.00704231
0.00705996
0.0070958
0.00714017
0.00717364
0.00720371
0.00721442
0.00721197
0.00720203
0.00718149
0.00713792
0.00708804
0.00701652
0.00695161
0.00686403
0.00679033
0.00669824
0.00662758
0.00653656
0.00646861
0.00637458
0.00630571
0.00620846
0.00613765
0.00603618
0.00596181
0.00585775
0.00578511
0.00568172
0.00561953
0.00552353
0.00550899
0.00478151
0.00496087
0.00506378
0.00512626
0.00516166
0.00522819
0.00532002
0.00534918
0.00541229
0.0055521
0.00567127
0.0057186
0.00579278
0.0059268
0.0061682
0.0063746
0.00664734
0.00685704
0.00696046
0.00699537
0.00700059
0.00700976
0.00701158
0.00700903
0.00700016
0.00697952
0.00695927
0.00694487
0.00692455
0.00690214
0.00685792
0.00681808
0.00675317
0.00669445
0.00660671
0.00653132
0.00642913
0.00634978
0.00624667
0.00617364
0.0060808
0.00601395
0.00592963
0.00586291
0.00577747
0.00571056
0.00561877
0.00556298
0.00546929
0.00546551
0.000202751
0.000138423
0.000160294
0.000206096
0.000264369
0.000233712
0.000609904
0.00033101
0.000206829
0.000277888
0.000396816
0.000501746
0.000739995
0.00108424
0.000472704
0.000326757
0.000407265
0.000637341
0.000677795
0.00131285
0.00152638
0.000711995
0.000484276
0.000628132
0.000871174
0.00092784
0.00168089
0.00177033
0.00103216
0.000743687
0.000929405
0.00119342
0.0012553
0.00197357
0.00211378
0.00138725
0.0010624
0.00125602
0.0015668
0.00165999
0.00235683
0.00250774
0.00180368
0.00140974
0.00163003
0.00204398
0.00214884
0.00281757
0.00301418
0.00228477
0.00180811
0.00207854
0.00258428
0.00270797
0.003313
0.00357498
0.00281139
0.00227444
0.0025781
0.0031504
0.00327131
0.00382791
0.00410333
0.00331796
0.00277434
0.00305646
0.00369526
0.0038044
0.00433818
0.00457675
0.00373069
0.00321962
0.00344593
0.00415406
0.00423801
0.00477435
0.0049671
0.00407893
0.00357466
0.00377268
0.00454775
0.00463138
0.00512672
0.00529005
0.00441774
0.00390065
0.00409826
0.00489983
0.00497093
0.00543478
0.00559558
0.00468604
0.00419797
0.00436865
0.00515246
0.00520017
0.00569458
0.00581952
0.00487441
0.0044407
0.00456674
0.00531576
0.00534554
0.00585579
0.00592538
0.00497049
0.00460856
0.00466704
0.00541957
0.00543611
0.00593737
0.00596706
0.00502914
0.0046868
0.00472683
0.00548707
0.00549919
0.00597462
0.00599796
0.00507715
0.00474629
0.00476576
0.00556689
0.00558337
0.00599964
0.00600972
0.0051401
0.004781
0.00481535
0.00565347
0.0056716
0.00603383
0.00606322
0.00521521
0.00483509
0.00488308
0.00571911
0.00573224
0.00609145
0.00612225
0.00524428
0.00489064
0.00491464
0.00574331
0.005745
0.00613417
0.00614098
0.00524014
0.00491409
0.00491477
0.00574047
0.00573648
0.00614058
0.00613405
0.00522115
0.00490917
0.00489921
0.00572282
0.00571588
0.00612871
0.00611356
0.00518299
0.0048845
0.00486548
0.00568523
0.0056725
0.00609944
0.0060718
0.0051223
0.00484331
0.00481321
0.00561737
0.00559721
0.0060434
0.00600548
0.00504633
0.00478474
0.00474785
0.00552738
0.0055041
0.00595944
0.00591145
0.00495983
0.00471462
0.0046723
0.00542519
0.00539904
0.0058566
0.00580211
0.00486728
0.00463626
0.00459013
0.00531645
0.00528945
0.00574159
0.00568082
0.00477018
0.00455164
0.00450073
0.00520719
0.00518004
0.00562218
0.00555825
0.00467264
0.00446113
0.00440947
0.00510037
0.00507432
0.00550396
0.00544288
0.00457332
0.00436942
0.00431599
0.00499344
0.00496635
0.00539025
0.00532706
0.00447614
0.00427623
0.00422393
0.004889
0.00486353
0.0052769
0.00521771
0.00437625
0.00418392
0.00412896
0.00478379
0.00475647
0.0051703
0.00510934
0.00427652
0.00408862
0.00403369
0.00467933
0.0046537
0.00506191
0.00500191
0.0041749
0.00399291
0.00393607
0.00457492
0.00454787
0.00495595
0.00489559
0.00407415
0.00389542
0.00383976
0.00446973
0.00444377
0.00484823
0.00478935
0.00397534
0.00379964
0.003745
0.00436642
0.00434055
0.00474258
0.00468658
0.00387732
0.00370587
0.00365265
0.0042615
0.00423518
0.00463853
0.00458355
0.00378058
0.00361352
0.00356156
0.00415618
0.00413032
0.00453405
0.00448153
0.00368241
0.00352348
0.00347076
0.0040481
0.00402089
0.00443066
0.00437612
0.00358345
0.0034314
0.00337804
0.0039394
0.00391255
0.0043232
0.00426865
0.00348609
0.00334
0.00328787
0.00383244
0.00380589
0.00421507
0.00415984
0.00339053
0.00324969
0.00319742
0.00372868
0.0037031
0.00410763
0.0040532
0.00329493
0.00316024
0.0031083
0.00362537
0.00359886
0.00400213
0.0039464
0.00320727
0.00307119
0.00302341
0.00353107
0.00350968
0.00389631
0.00384639
0.003116
0.00298852
0.00293794
0.00343542
0.00340832
0.00380264
0.00375074
0.00303479
0.00290134
0.00285831
0.00334762
0.00332958
0.00369958
0.00365147
0.00294547
0.0028236
0.00277299
0.00325749
0.00322806
0.00361312
0.00355749
0.00284578
0.00273765
0.00267424
0.00315782
0.00313037
0.00350607
0.00340892
0.00262074
0.00263725
0.00249398
0.00300268
0.00288027
0.00336664
0.00318644
)
;

boundaryField
{
    inlet
    {
        type            turbulentMixingLengthDissipationRateInlet;
        mixingLength    0.5;
        phi             phi;
        k               k;
        value           nonuniform List<scalar> 
28
(
7.7439e-05
7.7439e-05
7.7439e-05
7.7439e-05
7.7439e-05
8.64043e-05
8.64044e-05
8.64044e-05
8.64044e-05
8.64043e-05
0.000105523
0.000105523
0.000105523
0.000105523
0.000105523
0.000127423
0.000136503
0.000136503
0.000136503
0.000136503
0.000181748
0.000181748
0.000181748
0.000181748
0.000181748
0.000146411
0.000146411
0.000127423
)
;
    }
    outlet
    {
        type            inletOutlet;
        inletValue      uniform 1;
        value           nonuniform List<scalar> 
28
(
0.000646202
0.000644112
0.000644473
0.000642486
0.000643629
0.00074507
0.000747618
0.000745288
0.000749575
0.000744509
0.00142968
0.00141675
0.00140456
0.00141004
0.00139447
0.00262074
0.00284508
0.0027971
0.00280995
0.00278573
0.00556857
0.00554988
0.00552783
0.00550899
0.00546551
0.00249398
0.00318644
0.00288027
)
;
    }
    side1
    {
        type            cyclicAMI;
        value           nonuniform List<scalar> 
400
(
8.65763e-05
8.65159e-05
0.000106857
0.000189678
0.00477226
0.000103224
8.7426e-05
0.000115809
0.000308569
0.00495486
0.000123521
9.09031e-05
0.000137026
0.000447962
0.0050848
0.000138452
9.74699e-05
0.000166544
0.000679577
0.00514498
0.000154993
0.000103987
0.000192236
0.00100005
0.00517598
0.000165265
0.000108751
0.000225404
0.00135777
0.00523381
0.000179392
0.000112874
0.000267313
0.00177347
0.00533713
0.000195883
0.000119829
0.000344991
0.00225615
0.00543755
0.000220368
0.000126793
0.000412405
0.00277601
0.00555565
0.000248278
0.00013435
0.000494307
0.0032971
0.00574794
0.000278895
0.000145365
0.000585411
0.00373172
0.00595433
0.000310694
0.000159348
0.000715712
0.00410492
0.00608594
0.000339891
0.000172834
0.000869833
0.00445009
0.00620897
0.000364231
0.000189808
0.00104705
0.00471532
0.00630714
0.000382592
0.000209451
0.00117436
0.00490467
0.00645111
0.000396547
0.000231716
0.00128024
0.0050252
0.00659912
0.000408301
0.000255903
0.00138523
0.00509347
0.00679691
0.0004201
0.000282844
0.00149463
0.00516828
0.00700329
0.000435087
0.000312094
0.00160461
0.00523792
0.00713374
0.000451905
0.000343621
0.00171835
0.00530381
0.00720653
0.000472961
0.000374912
0.00181361
0.00533777
0.00724174
0.000494352
0.000407317
0.00188761
0.00534488
0.00726734
0.000519172
0.000439679
0.00194242
0.00533055
0.00727945
0.000542208
0.000473302
0.00199532
0.00529392
0.00727703
0.000567728
0.000506573
0.00204164
0.00523106
0.00726548
0.000589677
0.000539823
0.00208387
0.00515247
0.00723957
0.000613095
0.000572092
0.00211335
0.00506301
0.00720113
0.000631762
0.000601601
0.00213334
0.00496908
0.00716646
0.000651323
0.000630114
0.00213547
0.00487205
0.007124
0.000665745
0.000655513
0.00213236
0.00477403
0.00708547
0.000680942
0.000680386
0.00212299
0.00467418
0.00702752
0.000690863
0.000701495
0.00211187
0.0045768
0.00697808
0.000701404
0.0007215
0.00209088
0.00447645
0.00690685
0.000706637
0.000737717
0.00207329
0.00437725
0.00684642
0.000712575
0.000752348
0.00204365
0.0042753
0.00675932
0.000713861
0.000763834
0.0020225
0.00417401
0.00668516
0.000715715
0.000773807
0.00199014
0.0040738
0.00658329
0.000714706
0.000780726
0.00196652
0.0039736
0.00649992
0.000712394
0.000786614
0.00193014
0.0038741
0.00639185
0.000708705
0.000789732
0.00190223
0.00377295
0.00630759
0.000703472
0.00079015
0.00185561
0.00367133
0.00620419
0.000697132
0.000789355
0.0018254
0.00357197
0.00612443
0.000690604
0.000786626
0.0017718
0.00347441
0.00602797
0.000684355
0.000783498
0.00173897
0.0033769
0.00595315
0.000674933
0.000777292
0.00168751
0.00328848
0.00585837
0.000667519
0.000771647
0.00165235
0.00319452
0.00578822
0.000652504
0.000763963
0.00160883
0.00311449
0.00569007
0.000641805
0.000754995
0.00156715
0.00302235
0.00563118
0.000636105
0.000740413
0.00152494
0.00293348
0.0055348
0.000644915
0.00074479
0.00141207
0.00276271
0.00551704
0.000214756
0.000256087
0.000217998
0.00033268
0.000444427
0.00037584
0.000472149
0.000606156
0.000579713
0.000722284
0.000864272
0.000827233
0.0010524
0.00120002
0.00115958
0.001414
0.00159462
0.00153371
0.00183912
0.00206784
0.0019993
0.00233349
0.0026144
0.00253355
0.00286184
0.00316689
0.00308787
0.00337482
0.00369777
0.00362643
0.00379333
0.00413043
0.00407557
0.00416347
0.00453201
0.00447734
0.00450592
0.00487525
0.00482878
0.00476186
0.00510458
0.00507339
0.00493923
0.00525287
0.0052334
0.00503845
0.00534876
0.00533796
0.00510328
0.00541704
0.00540912
0.00517502
0.0055145
0.00550373
0.00525258
0.00560987
0.00559802
0.00532333
0.00567077
0.00566219
0.00534825
0.00568467
0.00568357
0.00534461
0.00567822
0.00568083
0.00532636
0.00565897
0.00566351
0.00528643
0.00561547
0.0056238
0.00521934
0.00553828
0.00555146
0.00513863
0.00544595
0.00546117
0.00504734
0.00534212
0.00535921
0.00495226
0.00523567
0.00525332
0.00485424
0.00512953
0.00514728
0.0047565
0.00502643
0.00504345
0.00465599
0.00492015
0.00493785
0.00455916
0.00481967
0.00483632
0.00445762
0.0047133
0.00473116
0.00435884
0.00461262
0.00462937
0.00425619
0.00450711
0.00452479
0.00415553
0.00440428
0.00442124
0.00405563
0.0043014
0.00431831
0.00395557
0.00419636
0.00421356
0.0038564
0.00409166
0.00410857
0.00375466
0.00398224
0.00400003
0.00365291
0.00387413
0.00389168
0.00355382
0.0037688
0.00378616
0.00345649
0.00366659
0.00368331
0.00335872
0.00356299
0.00358032
0.00327274
0.00347615
0.00349014
0.00317658
0.00337297
0.00339068
0.00310044
0.00329889
0.00331068
0.0030042
0.00319408
0.00321331
0.0029107
0.00310243
0.00312036
0.00267327
0.00284752
0.00292754
)
;
    }
    side2
    {
        type            cyclicAMI;
        value           nonuniform List<scalar> 
250
(
8.65763e-05
8.65159e-05
0.000106857
0.000219994
0.00477226
0.000103224
8.7426e-05
0.000115809
0.000366317
0.00495486
0.000123521
9.09031e-05
0.000137026
0.000527887
0.0050848
0.000138452
9.74699e-05
0.000166544
0.000774858
0.00514498
0.000154993
0.000103987
0.000192236
0.00110462
0.00517598
0.000165265
0.000108751
0.000225404
0.00147689
0.00523381
0.000179392
0.000112874
0.000267313
0.00192231
0.00533713
0.000195883
0.000119829
0.000344991
0.00243732
0.00543755
0.000220368
0.000126793
0.000412405
0.00297638
0.00555565
0.000248278
0.00013435
0.000494307
0.00350245
0.00574794
0.000278895
0.000145365
0.000585411
0.00393633
0.00595433
0.000310694
0.000159348
0.000715712
0.00432332
0.00608594
0.000339891
0.000172834
0.000869833
0.00466893
0.00620897
0.000364231
0.000189808
0.00104705
0.00491746
0.00630714
0.000382592
0.000209451
0.00117436
0.00508591
0.00645111
0.000396547
0.000231716
0.00128024
0.00519086
0.00659912
0.000408301
0.000255903
0.00138523
0.00525902
0.00679691
0.0004201
0.000282844
0.00149463
0.00534392
0.00700329
0.000435087
0.000312094
0.00160461
0.00542835
0.00713374
0.000451905
0.000343621
0.00171835
0.00549372
0.00720653
0.000472961
0.000374912
0.00181361
0.00551714
0.00724174
0.000494352
0.000407317
0.00188761
0.00551564
0.00726734
0.000519172
0.000439679
0.00194242
0.00549833
0.00727945
0.000542208
0.000473302
0.00199532
0.00545835
0.00727703
0.000567728
0.000506573
0.00204164
0.00538838
0.00726548
0.000589677
0.000539823
0.00208387
0.00530278
0.00723957
0.000613095
0.000572092
0.00211335
0.00520602
0.00720113
0.000631762
0.000601601
0.00213334
0.00510555
0.00716646
0.000651323
0.000630114
0.00213547
0.00500366
0.007124
0.000665745
0.000655513
0.00213236
0.00490293
0.00708547
0.000680942
0.000680386
0.00212299
0.00479981
0.00702752
0.000690863
0.000701495
0.00211187
0.00470071
0.00697808
0.000701404
0.0007215
0.00209088
0.0045973
0.00690685
0.000706637
0.000737717
0.00207329
0.00449717
0.00684642
0.000712575
0.000752348
0.00204365
0.00439347
0.00675932
0.000713861
0.000763834
0.0020225
0.00429136
0.00668516
0.000715715
0.000773807
0.00199014
0.00418985
0.00658329
0.000714706
0.000780726
0.00196652
0.00408729
0.00649992
0.000712394
0.000786614
0.00193014
0.00398514
0.00639185
0.000708705
0.000789732
0.00190223
0.00387985
0.00630759
0.000703472
0.00079015
0.00185561
0.00377482
0.00620419
0.000697132
0.000789355
0.0018254
0.00367243
0.00612443
0.000690604
0.000786626
0.0017718
0.00357239
0.00602797
0.000684355
0.000783498
0.00173897
0.00347187
0.00595315
0.000674933
0.000777292
0.00168751
0.003384
0.00585837
0.000667519
0.000771647
0.00165235
0.00328574
0.00578822
0.000652504
0.000763963
0.00160883
0.00320819
0.00569007
0.000641805
0.000754995
0.00156715
0.00311048
0.00563118
0.000636105
0.000740413
0.00152494
0.00301873
0.0055348
0.000644915
0.00074479
0.00141207
0.00280453
0.00551704
)
;
    }
    walls
    {
        type            epsilonWallFunction;
        Cmu             0.09;
        kappa           0.41;
        E               9.8;
        value           nonuniform List<scalar> 
250
(
0.00476301
0.0047729
0.00477698
0.00477461
0.00478151
0.00494884
0.00492193
0.00494018
0.00494989
0.00496087
0.00510582
0.00502852
0.00503124
0.00504324
0.00506378
0.00516369
0.00513783
0.00512513
0.0051061
0.00512626
0.00519031
0.0051915
0.00519724
0.00516964
0.00516166
0.00523942
0.00521823
0.00524615
0.0052452
0.00522819
0.00535425
0.00528187
0.00528274
0.00527506
0.00532002
0.00552593
0.00542082
0.00536806
0.00534298
0.00534918
0.00569901
0.00555304
0.00547125
0.00545071
0.00541229
0.00594377
0.00574915
0.00562682
0.00562106
0.0055521
0.00623738
0.00598572
0.00581743
0.00573642
0.00567127
0.00645327
0.00628451
0.00606389
0.00591996
0.0057186
0.00662516
0.00656191
0.0063205
0.00613688
0.00579278
0.00668747
0.00678434
0.00657868
0.006367
0.0059268
0.00673402
0.00687628
0.00678923
0.00659722
0.0061682
0.00682364
0.00693481
0.00691248
0.0067862
0.0063746
0.00694649
0.00693856
0.00699759
0.00695257
0.00664734
0.00714954
0.00698961
0.00700221
0.00703649
0.00685704
0.00730702
0.00710972
0.00703287
0.00704231
0.00696046
0.0074177
0.00724192
0.00710538
0.00705996
0.00699537
0.00748288
0.00733293
0.00718473
0.0070958
0.00700059
0.00752492
0.00739201
0.00724867
0.00714017
0.00700976
0.00754732
0.00743333
0.007292
0.00717364
0.00701158
0.00754503
0.00745713
0.00732423
0.00720371
0.00700903
0.00753079
0.00745624
0.00732999
0.00721442
0.00700016
0.00749963
0.00744262
0.00732502
0.00721197
0.00697952
0.007443
0.00740543
0.00731127
0.00720203
0.00695927
0.00738805
0.00734339
0.00728253
0.00718149
0.00694487
0.00732344
0.00726297
0.00722242
0.00713792
0.00692455
0.0072688
0.0071955
0.00715995
0.00708804
0.00690214
0.00719711
0.00711539
0.00707717
0.00701652
0.00685792
0.00713808
0.0070482
0.00700001
0.00695161
0.00681808
0.00706053
0.00696607
0.00691056
0.00686403
0.00675317
0.00699839
0.00690155
0.00683984
0.00679033
0.00669445
0.00691192
0.00682056
0.00675257
0.00669824
0.00660671
0.006839
0.00675681
0.00668507
0.00662758
0.00653132
0.00673745
0.00667116
0.00659738
0.00653656
0.00642913
0.00665006
0.00659787
0.00652906
0.00646861
0.00634978
0.00653703
0.00649898
0.00643346
0.00637458
0.00624667
0.00644155
0.00641252
0.0063621
0.00630571
0.00617364
0.00632757
0.00630123
0.00626031
0.00620846
0.0060808
0.00623491
0.00621002
0.00618361
0.00613765
0.00601395
0.00612632