/*--------------------------------*- C++ -*----------------------------------*\
| =========                 |                                                 |
| \\      /  F ield         | OpenFOAM: The Open Source CFD Toolbox           |
|  \\    /   O peration     | Version:  4.1                                   |
|   \\  /    A nd           | Web:      www.OpenFOAM.org                      |
|    \\/     M anipulation  |                                                 |
\*---------------------------------------------------------------------------*/
FoamFile
{
    version     2.0;
    format      ascii;
    class       volScalarField;
    location    "239";
    object      k;
}
// * * * * * * * * * * * * * * * * * * * * * * * * * * * * * * * * * * * * * //

dimensions      [0 2 -2 0 0 0 0];

internalField   nonuniform List<scalar> 
1600
(
0.00390014
0.00403744
0.00416224
0.00423443
0.00428481
0.00429731
0.00432357
0.00436062
0.00443462
0.00449856
0.00458081
0.00462892
0.00467888
0.00468179
0.00467304
0.00465103
0.00461806
0.00458399
0.00455743
0.00453366
0.00451982
0.00450406
0.00449522
0.00447926
0.00446763
0.00444528
0.00442734
0.00439443
0.00436885
0.00432318
0.00428861
0.00423592
0.00419114
0.004133
0.00408103
0.00401784
0.00396256
0.00389799
0.00383583
0.00377342
0.00371075
0.00364112
0.00358508
0.00352677
0.0034586
0.00339368
0.00329443
0.00320013
0.0031253
0.00316728
0.00390265
0.00402688
0.00415247
0.00422881
0.00427865
0.00429224
0.00431753
0.00435506
0.00443069
0.00449726
0.00458242
0.00463166
0.00467767
0.00467764
0.00466867
0.00464684
0.00461423
0.00458136
0.00455535
0.00453176
0.00451812
0.00450267
0.00449398
0.00447808
0.00446635
0.00444373
0.00442468
0.00439082
0.0043652
0.00431969
0.00428559
0.00423329
0.00418895
0.00413119
0.00407979
0.00401685
0.00396147
0.0038969
0.00383416
0.00377139
0.00370846
0.00363874
0.00358272
0.00352458
0.0034568
0.00339274
0.00329441
0.00319888
0.00312712
0.00315948
0.00390287
0.00402842
0.00414368
0.00422606
0.00427663
0.00429267
0.00431867
0.00435477
0.00442917
0.00449278
0.00457881
0.00463182
0.00468073
0.00468038
0.00467013
0.00464639
0.00461309
0.00457995
0.00455422
0.00453093
0.00451757
0.00450236
0.0044939
0.00447868
0.00446745
0.00444495
0.00442561
0.00439136
0.00436519
0.00431934
0.00428506
0.00423269
0.0041885
0.00413122
0.00407987
0.00401719
0.00396206
0.00389739
0.00383469
0.00377154
0.00370819
0.00363846
0.00358226
0.00352436
0.0034559
0.00339275
0.00329315
0.00319862
0.00312534
0.00315372
0.00390134
0.00403131
0.00413985
0.00421484
0.00426982
0.004287
0.00431374
0.00434949
0.004427
0.00449131
0.00457522
0.00462887
0.00467732
0.00467861
0.0046687
0.00464477
0.00461113
0.00457746
0.0045517
0.00452826
0.00451511
0.00450019
0.00449161
0.00447582
0.00446442
0.00444235
0.00442359
0.00438952
0.00436352
0.00431755
0.00428313
0.00423059
0.00418591
0.00412831
0.00407706
0.00401425
0.00395942
0.00389522
0.00383295
0.0037701
0.00370768
0.0036376
0.00358016
0.00352284
0.00345407
0.00339146
0.00329234
0.00319852
0.00311996
0.00315608
0.00389861
0.00403815
0.00415069
0.00421586
0.00426832
0.00428318
0.0043091
0.00434383
0.0044183
0.00448556
0.00457009
0.00462558
0.00467706
0.00467798
0.00466851
0.00464472
0.00461049
0.00457592
0.00454982
0.00452638
0.00451277
0.00449822
0.00449028
0.00447512
0.00446386
0.00444189
0.00442364
0.00439005
0.00436421
0.00431837
0.00428392
0.00423136
0.00418653
0.00412869
0.0040771
0.00401427
0.00395922
0.00389508
0.00383294
0.00377018
0.00370794
0.0036381
0.00358106
0.00352327
0.00345458
0.00339075
0.0032931
0.00319785
0.00312162
0.00316185
0.00409948
0.00410159
0.00411159
0.00413328
0.0041562
0.00416392
0.00416347
0.00416699
0.00417523
0.00418517
0.00419327
0.00421049
0.00423401
0.00425751
0.00428334
0.00430681
0.00433141
0.00435577
0.00438234
0.00441202
0.00444007
0.00446199
0.00448112
0.00449646
0.00451025
0.00452129
0.00452699
0.0045264
0.00452224
0.00451065
0.00449719
0.00447182
0.00444994
0.00441656
0.00438238
0.00434278
0.00429967
0.00425591
0.00420477
0.00415719
0.00410136
0.00404461
0.00397976
0.00393001
0.00385596
0.00379764
0.00373631
0.00366373
0.00354768
0.00354385
0.00409976
0.00409785
0.00410378
0.00411606
0.00414063
0.00415221
0.00416488
0.00417299
0.00418574
0.00419458
0.00419804
0.00420671
0.00422671
0.00425524
0.00428433
0.0043137
0.00434263
0.00436602
0.00438689
0.00441075
0.00443821
0.00446409
0.00448489
0.00449945
0.00451098
0.00452026
0.00452691
0.00452784
0.00452597
0.00451856
0.00450614
0.00448017
0.00445735
0.0044224
0.00438716
0.00434591
0.00430085
0.00425606
0.00420227
0.00415647
0.00410162
0.00404689
0.00398733
0.00393558
0.00386238
0.00380512
0.0037392
0.00366666
0.00355297
0.0035582
0.00410131
0.00409795
0.00410299
0.00411243
0.00413337
0.00415336
0.0041624
0.00416644
0.00417328
0.00418642
0.00420058
0.00421169
0.00422221
0.00424454
0.00427232
0.00430501
0.00433545
0.00436304
0.0043873
0.00441081
0.00443487
0.00445818
0.00447995
0.00449668
0.00450924
0.00451694
0.00452143
0.00452029
0.00451626
0.00450702
0.00449598
0.00447304
0.00445153
0.00441902
0.0043855
0.00434599
0.004301
0.00425589
0.004201
0.00415097
0.00409554
0.0040384
0.00397776
0.00392906
0.0038562
0.003801
0.00373736
0.00366608
0.00354999
0.00354232
0.00410327
0.00409966
0.00410483
0.00411403
0.00412545
0.00414052
0.00417128
0.00418643
0.00418455
0.00418965
0.00420272
0.00421901
0.00423337
0.00425185
0.00427301
0.00430096
0.00433335
0.00436905
0.00439825
0.00442452
0.00444835
0.00447057
0.00449313
0.00451202
0.00452679
0.00453452
0.00453771
0.00453583
0.00453026
0.00451868
0.00450757
0.00448496
0.00446461
0.00443182
0.00440067
0.00436203
0.00431944
0.00427373
0.00421887
0.00416675
0.00410856
0.00404858
0.00398866
0.00393898
0.00386419
0.00381489
0.00374521
0.0036671
0.00355696
0.00354748
0.00410151
0.00410015
0.00410825
0.0041284
0.00414521
0.00415001
0.00415689
0.00417118
0.0041802
0.004185
0.00419545
0.00421377
0.0042313
0.00425113
0.00427219
0.0042977
0.00432583
0.00435572
0.00438698
0.00441287
0.00443675
0.00445746
0.00447712
0.00449364
0.00450787
0.00451719
0.00452094
0.00451947
0.00451436
0.0045019
0.00448957
0.00446534
0.0044441
0.00441111
0.00437796
0.00433944
0.00429663
0.00425361
0.00420081
0.00415124
0.00409403
0.00403633
0.00397126
0.00392271
0.00384766
0.00379309
0.00373006
0.00365686
0.0035425
0.00354406
0.00469011
0.00472557
0.00485322
0.00497861
0.00501395
0.0050284
0.00507628
0.00520078
0.00538017
0.00552573
0.00566341
0.00590811
0.00624834
0.00663028
0.00687951
0.00701129
0.00714792
0.00726859
0.00740043
0.00755765
0.00769078
0.0077725
0.00780948
0.00783212
0.00785991
0.00787897
0.0078765
0.00786454
0.00782921
0.00777018
0.00768865
0.00761216
0.00752268
0.0074405
0.00732708
0.00723984
0.00712215
0.00703462
0.00691521
0.0068233
0.00668305
0.00658706
0.00642794
0.00632747
0.00616999
0.00606031
0.00592861
0.00579167
0.0056666
0.00537952
0.00468529
0.00469104
0.00474264
0.00487889
0.00499576
0.00504811
0.00509406
0.00518711
0.00534121
0.00558068
0.00571813
0.00586566
0.00606356
0.00634879
0.00672051
0.00700553
0.00717798
0.00729864
0.00738556
0.00747079
0.00757749
0.00768954
0.0077647
0.0077959
0.00779863
0.00779677
0.00778759
0.00777641
0.00776093
0.00773096
0.00767081
0.0075949
0.00750239
0.00741601
0.00729991
0.00720201
0.00706761
0.00697003
0.00683581
0.00675055
0.00661267
0.00653206
0.00638754
0.00630074
0.00614803
0.00605194
0.00590131
0.00576796
0.00564442
0.00535571
0.0046867
0.00469665
0.00472601
0.00479825
0.00496714
0.00505682
0.00509266
0.00516071
0.00526302
0.00550227
0.00575294
0.00595963
0.00612033
0.00628632
0.00650338
0.00678445
0.00702627
0.00720152
0.00733071
0.00742797
0.00750394
0.00758512
0.00766052
0.0077138
0.00773562
0.00773196
0.00771719
0.00768737
0.00764842
0.00761399
0.00756291
0.00750558
0.00742538
0.00735222
0.00724913
0.0071657
0.00703736
0.00693858
0.00679866
0.00669939
0.00655587
0.00646407
0.00631737
0.00623197
0.00608252
0.00599707
0.00585737
0.0057274
0.00560733
0.00532067
0.00468501
0.00470783
0.0047418
0.00477394
0.00484831
0.00501555
0.00516726
0.00530649
0.00534633
0.00546043
0.00571015
0.00602646
0.00627445
0.0064279
0.0065351
0.00673279
0.00696823
0.00720679
0.00738222
0.00750679
0.00757776
0.00762979
0.00768838
0.00774478
0.00778147
0.00778057
0.00776766
0.00773592
0.00767223
0.00762314
0.00756573
0.00750702
0.00743004
0.00735506
0.00725928
0.00718484
0.00706806
0.00697393
0.00683443
0.00672537
0.0065745
0.00647081
0.0063176
0.00623125
0.00607649
0.00599817
0.00585864
0.0057344
0.00561652
0.00533241
0.00468494
0.00472067
0.00479308
0.00482694
0.00484349
0.00489105
0.00499502
0.00516064
0.00529058
0.00540872
0.0055662
0.00583789
0.00610741
0.00636697
0.00652984
0.00668133
0.00683831
0.00701784
0.00719018
0.00734085
0.0074525
0.007528
0.00758031
0.00762683
0.00766582
0.00768348
0.0076799
0.00766485
0.0076235
0.00757116
0.00750504
0.0074404
0.00735801
0.00728331
0.00717962
0.00710433
0.00699243
0.00691019
0.00678608
0.00669376
0.00654945
0.00645608
0.00629779
0.00620622
0.00605097
0.0059552
0.00582651
0.00569613
0.00557943
0.00529376
0.00544677
0.00574528
0.00614963
0.00657681
0.00709119
0.00782477
0.00875787
0.00972951
0.0107943
0.0118129
0.0125927
0.0132109
0.0137031
0.0140043
0.0142412
0.0143881
0.0144609
0.0145075
0.0145064
0.0144973
0.0144612
0.0143997
0.0142997
0.0141584
0.0139732
0.0137557
0.0135299
0.013315
0.0131059
0.0128986
0.0126866
0.0124774
0.012265
0.0120443
0.0118075
0.0115604
0.0113108
0.0110565
0.0108111
0.0105685
0.0103367
0.0101084
0.00989363
0.00967746
0.00947646
0.00926929
0.00907907
0.00887453
0.00866672
0.00836329
0.00560021
0.00580236
0.00628967
0.00713476
0.00777739
0.00847098
0.00938959
0.0103701
0.0113248
0.012228
0.0130066
0.0136075
0.0140392
0.014328
0.0145418
0.0146852
0.0147418
0.0147412
0.0147173
0.0146573
0.0145681
0.0144623
0.0143499
0.0142272
0.0140787
0.0139029
0.0136934
0.0134668
0.0132357
0.0130024
0.0127742
0.0125331
0.0123054
0.0120773
0.0118486
0.0116173
0.011382
0.0111466
0.0109069
0.0106739
0.0104381
0.0102113
0.00998872
0.00977271
0.00956315
0.00936615
0.00915984
0.00895633
0.00877424
0.00837097
0.00559585
0.00576241
0.00608902
0.00677798
0.00772111
0.00841346
0.00924208
0.0101768
0.011187
0.0119529
0.012749
0.0134063
0.0138783
0.0142326
0.0144444
0.0145945
0.0147235
0.0147316
0.014709
0.0146536
0.0145564
0.0144294
0.0142781
0.0141371
0.0139835
0.013834
0.0136505
0.0134497
0.0132306
0.0130073
0.0127783
0.0125499
0.0123019
0.0120584
0.0118096
0.0115716
0.0113311
0.0111015
0.0108701
0.0106418
0.0104155
0.0101913
0.00997565
0.00976063
0.00955561
0.00934598
0.00916741
0.00892373
0.00875677
0.0083125
0.00559156
0.00577692
0.00612676
0.00660076
0.00746233
0.00853688
0.00942807
0.0103508
0.0113948
0.0122438
0.0129572
0.0135434
0.0139829
0.0143243
0.0145998
0.0147267
0.0148498
0.0149018
0.0148931
0.0148555
0.0147876
0.014696
0.0145273
0.0143158
0.0140942
0.0139049
0.0137213
0.0135368
0.013336
0.0131229
0.0129055
0.012685
0.0124482
0.0122032
0.0119399
0.0116925
0.0114441
0.0111956
0.0109579
0.0107179
0.0104966
0.0102653
0.0100596
0.00982888
0.00963895
0.0094065
0.00924829
0.00899508
0.00883154
0.00837494
0.00559285
0.00580877
0.00622336
0.0066616
0.00727549
0.00812587
0.00910083
0.0100591
0.0111926
0.0121774
0.012933
0.0135666
0.0140233
0.0142457
0.0145023
0.0146222
0.0147138
0.0147895
0.0148113
0.0147995
0.014756
0.0146964
0.0145836
0.0144308
0.0142178
0.0139814
0.0137484
0.0135363
0.0133265
0.0131222
0.0129054
0.0127015
0.0124822
0.012259
0.012009
0.0117575
0.0115004
0.0112361
0.0109932
0.0107364
0.0105107
0.0102682
0.0100677
0.00982706
0.00965331
0.00940791
0.00926178
0.00900189
0.00883854
0.00838267
0.00683575
0.00701246
0.00715999
0.007214
0.00723876
0.00728431
0.00739044
0.00754699
0.0077079
0.00791976
0.00818303
0.00837108
0.00851711
0.00857169
0.00861089
0.00868715
0.00879117
0.00896165
0.00909271
0.00918436
0.00923806
0.00927264
0.00929104
0.00928917
0.00927751
0.00925195
0.00920516
0.00915993
0.00910635
0.00906119
0.00900148
0.00895232
0.00888748
0.00883543
0.00876269
0.00870105
0.00861498
0.00854037
0.00844373
0.00836121
0.00826264
0.00818173
0.00808663
0.00801363
0.00792126
0.00785617
0.00776232
0.00770691
0.00761718
0.00758868
0.00684523
0.00698703
0.00708752
0.00718988
0.00723987
0.00726465
0.00732376
0.00745126
0.00757236
0.00774906
0.00795654
0.00822408
0.00846461
0.00865387
0.00873172
0.00878125
0.00878447
0.00882752
0.00892834
0.00903867
0.00911424
0.00916311
0.00919722
0.00921686
0.00921613
0.00920493
0.00917426
0.00912295
0.00905615
0.0090001
0.00893317
0.00887697
0.00880789
0.00875365
0.00868521
0.00863107
0.00855829
0.00849546
0.00841082
0.00833601
0.00823961
0.00815989
0.00805939
0.00798437
0.00788641
0.00782241
0.00772757
0.00767464
0.00758855
0.00757171
0.00684915
0.00700429
0.00709009
0.00717802
0.00724519
0.00729058
0.00732449
0.00740301
0.00749755
0.00763935
0.00780895
0.00802999
0.00825477
0.00847821
0.00865788
0.00876237
0.00883418
0.0088381
0.00886388
0.00892471
0.00899102
0.00904427
0.00908028
0.00910702
0.0091118
0.00910767
0.00909628
0.00907248
0.00902241
0.00897038
0.00890107
0.00883641
0.00876098
0.00870129
0.00862734
0.0085698
0.008495
0.00843622
0.00835404
0.0082922
0.00820383
0.00813672
0.00804026
0.00796957
0.0078713
0.00780479
0.00771039
0.0076551
0.0075676
0.00755148
0.00684688
0.00701346
0.00710135
0.00716024
0.00721953
0.00728969
0.00731737
0.0073799
0.00747858
0.00763372
0.00773718
0.00790244
0.00809398
0.00829516
0.00849414
0.00865535
0.00879624
0.00886689
0.00887183
0.00888666
0.0089167
0.00895382
0.00898177
0.00900685
0.00901578
0.00901374
0.00900542
0.0089884
0.0089519
0.00891027
0.00885012
0.00879563
0.00872157
0.00865917
0.00858096
0.00852054
0.00844264
0.00838405
0.00830289
0.00824301
0.00815838
0.00809626
0.00800693
0.00794113
0.00784832
0.00778357
0.00769035
0.00763446
0.00754697
0.0075342
0.00685349
0.00702383
0.00712063
0.00717909
0.00721209
0.00727395
0.00735877
0.00738613
0.00744187
0.00757214
0.00767803
0.0077208
0.00778946
0.00790844
0.0081216
0.00830172
0.00853691
0.00871541
0.00880291
0.00883237
0.00883676
0.00884446
0.00884599
0.00884385
0.0088364
0.00881905
0.00880181
0.0087899
0.00877256
0.00875389
0.00871622
0.00868264
0.00862748
0.00857747
0.00850247
0.00843774
0.00834969
0.00828098
0.00819136
0.00812724
0.00804605
0.00798685
0.0079124
0.00785294
0.00777651
0.00771654
0.00763338
0.00758322
0.0074974
0.00749439
0.00555046
0.00534833
0.00543332
0.0057068
0.00568187
0.00595036
0.00593871
0.00583887
0.00556379
0.00576732
0.00584764
0.00591857
0.00601056
0.00616771
0.00624339
0.00594811
0.00619565
0.00634271
0.00647506
0.00654589
0.00700592
0.00665395
0.00637665
0.00656169
0.00692437
0.0070304
0.00735508
0.00762412
0.00718817
0.00678871
0.00705465
0.00756856
0.00774895
0.00803876
0.00827108
0.00796106
0.00740763
0.00768176
0.00852095
0.00881757
0.00877625
0.00913526
0.00895281
0.00816234
0.00855703
0.00980648
0.0101067
0.00985559
0.0102453
0.00991368
0.00905103
0.00947524
0.0110059
0.0112682
0.0109872
0.01131
0.0110228
0.0100047
0.0105209
0.0121144
0.0123937
0.0119722
0.0122726
0.0119976
0.0110046
0.0114851
0.013131
0.013339
0.0129089
0.0131676
0.0127337
0.0118265
0.012221
0.0138822
0.0140247
0.0136837
0.0138934
0.0133372
0.0124692
0.012788
0.0144188
0.0145258
0.0142589
0.0143867
0.0138024
0.012988
0.0132467
0.0147939
0.0148761
0.0146006
0.0146879
0.0140657
0.0133594
0.013529
0.0149896
0.0150233
0.014768
0.0147656
0.0143084
0.013608
0.0137637
0.0151153
0.0151579
0.0147881
0.0147861
0.0144088
0.0138
0.0138576
0.0151937
0.0151985
0.0148087
0.0148055
0.0144807
0.0138734
0.0139186
0.0152111
0.0152086
0.0147973
0.014767
0.0145055
0.0139276
0.013925
0.015209
0.015198
0.0147926
0.0147913
0.0145103
0.0139094
0.0139054
0.0151798
0.015165
0.0147753
0.0147428
0.0144969
0.0138845
0.0138784
0.015136
0.015122
0.0147148
0.0146795
0.0144527
0.0138496
0.0138347
0.0150752
0.0150531
0.0146537
0.0146094
0.0143856
0.0137909
0.0137676
0.0149934
0.0149672
0.0145857
0.0145461
0.0142738
0.0137074
0.0136703
0.0148883
0.0148532
0.0145077
0.0144678
0.0141253
0.0135874
0.0135397
0.0147476
0.0147033
0.0143961
0.0143453
0.0139293
0.0134369
0.013374
0.0145631
0.0145059
0.0142375
0.0141696
0.013707
0.0132521
0.0131732
0.0143348
0.0142686
0.0140271
0.0139454
0.0134815
0.0130424
0.0129642
0.014085
0.0140169
0.0137808
0.0136839
0.0132693
0.0128312
0.0127597
0.0138344
0.0137673
0.0135254
0.0134181
0.0130588
0.0126267
0.0125515
0.0135897
0.0135234
0.0132728
0.0131637
0.0128527
0.0124187
0.012345
0.0133541
0.0132915
0.0130303
0.0129284
0.0126376
0.0122122
0.0121345
0.013123
0.0130586
0.0128006
0.0126962
0.0124308
0.0120014
0.0119277
0.0128957
0.0128351
0.0125736
0.0124837
0.0122145
0.0117961
0.0117205
0.0126728
0.0126106
0.0123615
0.0122786
0.0119926
0.0115856
0.0115095
0.0124459
0.0123833
0.0121527
0.0120813
0.0117499
0.0113691
0.0112847
0.0122105
0.0121436
0.0119462
0.0118699
0.011503
0.0111391
0.0110528
0.0119642
0.0118963
0.0117273
0.0116486
0.0112524
0.0109046
0.0108157
0.0117155
0.0116476
0.0114989
0.0114185
0.0109973
0.0106678
0.0105782
0.0114608
0.0113901
0.0112628
0.0111773
0.0107568
0.0104292
0.0103438
0.0112092
0.0111442
0.0110187
0.0109365
0.0105116
0.0102028
0.0101165
0.0109609
0.0108917
0.0107796
0.0106931
0.0102855
0.00997392
0.00989154
0.0107186
0.0106563
0.0105389
0.0104582
0.0100531
0.00975882
0.00967658
0.0104816
0.0104142
0.0103097
0.010226
0.00984697
0.0095419
0.00946533
0.0102538
0.0101974
0.0100825
0.0100097
0.00962231
0.00934192
0.00926337
0.0100328
0.00996677
0.00987286
0.00979385
0.00943556
0.00913247
0.00906334
0.00981992
0.0097708
0.00966034
0.00959733
0.00921283
0.00894716
0.00887144
0.00961563
0.00954961
0.0094703
0.00939593
0.00904402
0.00873991
0.00867944
0.00941258
0.0093689
0.00926732
0.00920932
0.00881415
0.00856458
0.00848555
0.00921709
0.0091457
0.00908887
0.00901705
0.00861252
0.00835499
0.00826444
0.00899677
0.00894175
0.00888302
0.00882166
0.00817537
0.00816442
0.00789898
0.00876534
0.00852905
0.00871616
0.0084886
)
;

boundaryField
{
    inlet
    {
        type            turbulentIntensityKineticEnergyInlet;
        intensity       0.05;
        value           nonuniform List<scalar> 
28
(
0.00381504
0.00381504
0.00381504
0.00381504
0.00381504
0.00410408
0.00410408
0.00410408
0.00410408
0.00410408
0.00468911
0.00468911
0.00468911
0.00468911
0.00468911
0.00531729
0.005567
0.005567
0.005567
0.005567
0.0067376
0.0067376
0.0067376
0.0067376
0.0067376
0.00583321
0.00583321
0.0053173
)
;
    }
    outlet
    {
        type            inletOutlet;
        inletValue      uniform 1;
        value           nonuniform List<scalar> 
28
(
0.00316728
0.00315948
0.00315372
0.00315608
0.00316185
0.00354385
0.0035582
0.00354232
0.00354748
0.00354406
0.00537952
0.00535571
0.00532067
0.00533241
0.00529376
0.00817537
0.00837097
0.0083125
0.00837494
0.00838267
0.00758868
0.00757171
0.00755148
0.0075342
0.00749439
0.00789898
0.0084886
0.00852905
)
;
    }
    side1
    {
        type            cyclicAMI;
        value           nonuniform List<scalar> 
400
(
0.00389937
0.00410049
0.00468752
0.00549328
0.00684462
0.00403779
0.00410087
0.00472312
0.00576549
0.00701815
0.00415647
0.00410992
0.00482315
0.0061731
0.00714031
0.00422514
0.00413084
0.00490278
0.00660381
0.00719654
0.00427656
0.00415071
0.00492872
0.00714987
0.00722542
0.00429024
0.00415697
0.00495973
0.00792064
0.00727913
0.00431633
0.00416018
0.00503565
0.00886706
0.00737461
0.00435223
0.00416908
0.00518071
0.00983446
0.00746656
0.00442646
0.00417772
0.00533538
0.0109211
0.00757488
0.00449206
0.00418509
0.00546722
0.0119289
0.00774595
0.00457545
0.00419436
0.00561481
0.012701
0.00793053
0.00462725
0.00421213
0.005873
0.0133242
0.00804594
0.00467797
0.00423265
0.00617788
0.013805
0.00815328
0.00467988
0.00425432
0.00649862
0.0140811
0.00824006
0.00467078
0.00427776
0.00670468
0.0143243
0.00836625
0.00464787
0.00430225
0.00684631
0.0144626
0.00849444
0.00461428
0.00432862
0.00699311
0.0145414
0.00866404
0.00457995
0.00435575
0.00714322
0.0145973
0.00883853
0.00455363
0.00438466
0.0072953
0.0146035
0.00894781
0.00453002
0.00441245
0.00744925
0.0145935
0.00900836
0.00451629
0.00443841
0.00757164
0.0145551
0.00903741
0.00450114
0.00445972
0.00765025
0.0144942
0.00905855
0.00449275
0.00447912
0.00769489
0.0143901
0.00906852
0.00447719
0.00449505
0.00772948
0.0142451
0.00906651
0.00446575
0.00450906
0.00776287
0.0140511
0.00905695
0.00444358
0.00451924
0.00778123
0.0138276
0.0090355
0.00442549
0.00452396
0.0077782
0.0135995
0.00900348
0.00439224
0.00452293
0.0077647
0.0133855
0.00897492
0.00436653
0.0045183
0.00772636
0.0131762
0.00893945
0.00432077
0.00450628
0.00767067
0.0129698
0.00890754
0.00428626
0.00449338
0.00759684
0.0127563
0.00885885
0.00423364
0.00446858
0.00752628
0.0125488
0.00881748
0.00418884
0.00444702
0.00744034
0.0123342
0.00875748
0.00413084
0.00441383
0.0073619
0.0121127
0.00870645
0.00407906
0.00438017
0.00725335
0.0118717
0.00863258
0.00401605
0.00434111
0.00717208
0.0116231
0.0085694
0.00396089
0.00429815
0.00705729
0.0113712
0.00848234
0.00389653
0.00425476
0.00697241
0.0111137
0.00841067
0.00383438
0.00420279
0.00685065
0.0108691
0.00831755
0.0037718
0.00415422
0.00675853
0.010622
0.00824423
0.00370935
0.0040977
0.00661625
0.0103921
0.00815435
0.00363961
0.00404047
0.00652157
0.0101593
0.00808429
0.00358307
0.00397551
0.00636286
0.00994905
0.00799951
0.00352502
0.00392636
0.00626685
0.00972509
0.00793328
0.00345659
0.00385181
0.00611048
0.00953277
0.00784889
0.00339221
0.00379537
0.00600775
0.00931343
0.00778635
0.00329376
0.00373319
0.00587756
0.00913724
0.00769785
0.00319899
0.00366029
0.0057439
0.00891508
0.00764506
0.00312346
0.00354509
0.00562301
0.00872142
0.00755729
0.00316456
0.00354395
0.00533664
0.00836946
0.00754153
0.00556396
0.00565104
0.00566733
0.00582929
0.00588054
0.00583418
0.00623701
0.00638788
0.00630137
0.00665639
0.00690266
0.00683336
0.00721597
0.00758496
0.00746705
0.00801353
0.00857799
0.00838411
0.00899994
0.00975831
0.00956207
0.00995999
0.0108494
0.010678
0.0110769
0.0119777
0.0117951
0.0120548
0.0129367
0.0128007
0.0127972
0.0136466
0.0135534
0.0134102
0.0141935
0.0141236
0.0138727
0.0145808
0.014527
0.014123
0.014754
0.014732
0.0143701
0.0149308
0.014903
0.0144768
0.0149989
0.0149957
0.0145549
0.0150373
0.0150389
0.0145959
0.0150565
0.0150637
0.0146062
0.0150425
0.0150522
0.0145932
0.0150103
0.0150194
0.0145493
0.0149502
0.0149646
0.0144845
0.0148734
0.0148906
0.0143725
0.0147598
0.0147828
0.0142226
0.0146089
0.0146379
0.0140212
0.0144061
0.0144435
0.0137944
0.0141691
0.0142124
0.0135665
0.0139239
0.0139684
0.0133543
0.0136873
0.0137312
0.013144
0.0134552
0.0134986
0.0129385
0.0132329
0.0132738
0.0127228
0.0130055
0.0130477
0.012517
0.0127888
0.0128285
0.0122997
0.0125661
0.0126068
0.0120774
0.0123403
0.0123812
0.0118323
0.012097
0.0121407
0.011584
0.0118482
0.0118926
0.0113313
0.0115966
0.011641
0.0110733
0.0113367
0.011383
0.0108321
0.0110919
0.0111344
0.0105832
0.0108379
0.0108831
0.0103572
0.0106059
0.0106466
0.0101216
0.0103636
0.0104077
0.00991724
0.0101525
0.0101893
0.0096875
0.00991838
0.00996157
0.00950489
0.00973011
0.00976221
0.00927494
0.00950053
0.00954368
0.00911335
0.0093318
0.00936035
0.00887392
0.00909589
0.00914255
0.00868448
0.008906
0.00894196
0.00824137
0.00847835
0.0086328
)
;
    }
    side2
    {
        type            cyclicAMI;
        value           nonuniform List<scalar> 
250
(
0.00389937
0.00410049
0.00468752
0.00559527
0.00684462
0.00403779
0.00410087
0.00472312
0.005828
0.00701815
0.00415647
0.00410992
0.00482315
0.0062763
0.00714031
0.00422514
0.00413084
0.00490278
0.00675155
0.00719654
0.00427656
0.00415071
0.00492872
0.00735806
0.00722542
0.00429024
0.00415697
0.00495973
0.00822945
0.00727913
0.00431633
0.00416018
0.00503565
0.00930445
0.00737461
0.00435223
0.00416908
0.00518071
0.0103395
0.00746656
0.00442646
0.00417772
0.00533538
0.011452
0.00757488
0.00449206
0.00418509
0.00546722
0.0124395
0.00774595
0.00457545
0.00419436
0.00561481
0.0131835
0.00793053
0.00462725
0.00421213
0.005873
0.0137712
0.00804594
0.00467797
0.00423265
0.00617788
0.0142039
0.00815328
0.00467988
0.00425432
0.00649862
0.0144292
0.00824006
0.00467078
0.00427776
0.00670468
0.014638
0.00836625
0.00464787
0.00430225
0.00684631
0.014739
0.00849444
0.00461428
0.00432862
0.00699311
0.0147982
0.00866404
0.00457995
0.00435575
0.00714322
0.0148332
0.00883853
0.00455363
0.00438466
0.0072953
0.0148307
0.00894781
0.00453002
0.00441245
0.00744925
0.0148085
0.00900836
0.00451629
0.00443841
0.00757164
0.0147591
0.00903741
0.00450114
0.00445972
0.00765025
0.0146898
0.00905855
0.00449275
0.00447912
0.00769489
0.0145804
0.00906852
0.00447719
0.00449505
0.00772948
0.0144327
0.00906651
0.00446575
0.00450906
0.00776287
0.0142345
0.00905695
0.00444358
0.00451924
0.00778123
0.0140049
0.0090355
0.00442549
0.00452396
0.0077782
0.0137684
0.00900348
0.00439224
0.00452293
0.0077647
0.0135431
0.00897492
0.00436653
0.0045183
0.00772636
0.0133218
0.00893945
0.00432077
0.00450628
0.00767067
0.0131069
0.00890754
0.00428626
0.00449338
0.00759684
0.0128861
0.00885885
0.00423364
0.00446858
0.00752628
0.0126737
0.00881748
0.00418884
0.00444702
0.00744034
0.0124545
0.00875748
0.00413084
0.00441383
0.0073619
0.0122307
0.00870645
0.00407906
0.00438017
0.00725335
0.0119882
0.00863258
0.00401605
0.00434111
0.00717208
0.0117398
0.0085694
0.00396089
0.00429815
0.00705729
0.0114878
0.00848234
0.00389653
0.00425476
0.00697241
0.0112295
0.00841067
0.00383438
0.00420279
0.00685065
0.0109846
0.00831755
0.0037718
0.00415422
0.00675853
0.0107343
0.00824423
0.00370935
0.0040977
0.00661625
0.0105031
0.00815435
0.00363961
0.00404047
0.00652157
0.0102656
0.00808429
0.00358307
0.00397551
0.00636286
0.0100545
0.00799951
0.00352502
0.00392636
0.00626685
0.00982559
0.00793328
0.00345659
0.00385181
0.00611048
0.00963488
0.00784889
0.00339221
0.00379537
0.00600775
0.00941053
0.00778635
0.00329376
0.00373319
0.00587756
0.009238
0.00769785
0.00319899
0.00366029
0.0057439
0.00900921
0.00764506
0.00312346
0.00354509
0.00562301
0.00881578
0.00755729
0.00316456
0.00354395
0.00533664
0.00843311
0.00754153
)
;
    }
    walls
    {
        type            kqRWallFunction;
        value           nonuniform List<scalar> 
250
(
0.00683575
0.00684523
0.00684915
0.00684688
0.00685349
0.00701246
0.00698703
0.00700429
0.00701346
0.00702383
0.00715999
0.00708752
0.00709009
0.00710135
0.00712063
0.007214
0.00718988
0.00717802
0.00716024
0.00717909
0.00723876
0.00723987
0.00724519
0.00721953
0.00721209
0.00728431
0.00726465
0.00729058
0.00728969
0.00727395
0.00739044
0.00732376
0.00732449
0.00731737
0.00735877
0.00754699
0.00745126
0.00740301
0.0073799
0.00738613
0.0077079
0.00757236
0.00749755
0.00747858
0.00744187
0.00791976
0.00774906
0.00763935
0.00763372
0.00757214
0.00818303
0.00795654
0.00780895
0.00773718
0.00767803
0.00837108
0.00822408
0.00802999
0.00790244
0.0077208
0.00851711
0.00846461
0.00825477
0.00809398
0.00778946
0.00857169
0.00865387
0.00847821
0.00829516
0.00790844
0.00861089
0.00873172
0.00865788
0.00849414
0.0081216
0.00868715
0.00878125
0.00876237
0.00865535
0.00830172
0.00879117
0.00878447
0.00883418
0.00879624
0.00853691
0.00896165
0.00882752
0.0088381
0.00886689
0.00871541
0.00909271
0.00892834
0.00886388
0.00887183
0.00880291
0.00918436
0.00903867
0.00892471
0.00888666
0.00883237
0.00923806
0.00911424
0.00899102
0.0089167
0.00883676
0.00927264
0.00916311
0.00904427
0.00895382
0.00884446
0.00929104
0.00919722
0.00908028
0.00898177
0.00884599
0.00928917
0.00921686
0.00910702
0.00900685
0.00884385
0.00927751
0.00921613
0.0091118
0.00901578
0.0088364
0.00925195
0.00920493
0.00910767
0.00901374
0.00881905
0.00920516
0.00917426
0.00909628
0.00900542
0.00880181
0.00915993
0.00912295
0.00907248
0.0089884
0.0087899
0.00910635
0.00905615
0.00902241
0.0089519
0.00877256
0.00906119
0.0090001
0.00897038
0.00891027
0.00875389
0.00900148
0.00893317
0.00890107
0.00885012
0.00871622
0.00895232
0.00887697
0.00883641
0.00879563
0.00868264
0.00888748
0.00880789
0.00876098
0.00872157
0.00862748
0.00883543
0.00875365
0.00870129
0.00865917
0.00857747
0.00876269
0.00868521
0.00862734
0.00858096
0.00850247
0.00870105
0.00863107
0.0085698
0.00852054
0.00843774
0.00861498
0.00855829
0.008495
0.00844264
0.00834969
0.00854037
0.00849546
0.00843622
0.00838405
0.00828098
0.00844373
0.00841082
0.00835404
0.00830289
0.00819136
0.00836121
0.00833601
0.0082922
0.00824301
0.00812724
0.00826264
0.00823961
0.00820383
0.00815838
0.00804605
0.00818173
0.00815989
0.00813672
0.00809626
0.00798685
0.00808663
0.00805939
0.00804026
0.00800693
0.0079124
0.00801363
0.00798437
0.00796957
0.00794113
0.00785294
0.00792126
0.00788641
0.0078713
0.00784832
0.00777651
0.00785617
0.00782241
0.00780479
0.00778357
0.00771654
0.00776232
0.00772757
0.00771039
0.00769035
0.00763338
0.00770691
0.00767464
0.0076551
0.00763446
0.00758322
0.00761718
0.00758855
0.0075676
0.00754697
0.0074974
0.00758868
0.00757171
0.00755148
0.0075342
0.00749439
)
;
    }
}


// ************************************************************************* //
