/*--------------------------------*- C++ -*----------------------------------*\
| =========                 |                                                 |
| \\      /  F ield         | OpenFOAM: The Open Source CFD Toolbox           |
|  \\    /   O peration     | Version:  4.1                                   |
|   \\  /    A nd           | Web:      www.OpenFOAM.org                      |
|    \\/     M anipulation  |                                                 |
\*---------------------------------------------------------------------------*/
FoamFile
{
    version     2.0;
    format      ascii;
    class       volScalarField;
    location    "239";
    object      nut;
}
// * * * * * * * * * * * * * * * * * * * * * * * * * * * * * * * * * * * * * //

dimensions      [0 2 -1 0 0 0 0];

internalField   nonuniform List<scalar> 
1600
(
0.000617966
0.0006462
0.000667221
0.000682741
0.000696561
0.00069246
0.000681145
0.000682396
0.000698562
0.000719939
0.000736761
0.000747852
0.000756297
0.000758277
0.000762166
0.000762439
0.000757561
0.000749669
0.000742432
0.000736619
0.000732922
0.000730079
0.000728736
0.000727525
0.000727471
0.000726861
0.000726897
0.000725347
0.000724679
0.000721318
0.00071953
0.000715472
0.00071285
0.000708315
0.000704722
0.000699649
0.000695742
0.00069038
0.00068555
0.000680071
0.000675463
0.000666786
0.000663773
0.000655937
0.00064933
0.000637978
0.000621477
0.000592344
0.000564209
0.000633214
0.000618847
0.000649869
0.000664991
0.000678984
0.000693281
0.000691498
0.000695883
0.00069157
0.000696826
0.000706453
0.00072769
0.000744267
0.000759247
0.000760869
0.000761787
0.000760749
0.000755461
0.000747433
0.00073998
0.000733584
0.000730009
0.000727995
0.000727638
0.000726979
0.000726933
0.000726171
0.000725909
0.000724159
0.000723775
0.000720797
0.000719134
0.000715156
0.000712433
0.000707922
0.000704478
0.00069941
0.00069541
0.000689945
0.000684862
0.000679272
0.000674425
0.00066578
0.000663029
0.000655517
0.000649202
0.000637378
0.000621566
0.000592411
0.000568411
0.00064004
0.000620085
0.000654169
0.000678337
0.000691403
0.000705765
0.000700179
0.00070362
0.000713853
0.000711996
0.000721603
0.000733817
0.000748793
0.000765603
0.000767437
0.000766749
0.000766632
0.000762274
0.000755996
0.000749636
0.000742571
0.00073686
0.000732893
0.000731625
0.000731164
0.000731489
0.000730892
0.000730435
0.000728273
0.000727299
0.000724135
0.000722683
0.000718865
0.000716111
0.000711719
0.000708178
0.00070326
0.000699234
0.000693779
0.000688542
0.000682531
0.000677331
0.000668817
0.000665592
0.000657968
0.000651761
0.000639246
0.000623949
0.000594968
0.000568058
0.00063805
0.000619505
0.000643994
0.000686466
0.000697828
0.000703151
0.000704176
0.000689628
0.000698453
0.000703246
0.00070821
0.000725043
0.000741875
0.000763818
0.000771465
0.000771873
0.00076702
0.000759415
0.000751003
0.000745605
0.000741408
0.000738237
0.000734946
0.000732968
0.000731503
0.000731458
0.000731005
0.000731007
0.000729205
0.000728211
0.000724615
0.000723035
0.000719117
0.000716375
0.000711891
0.000708394
0.000703422
0.000699555
0.000694192
0.000689242
0.000683192
0.000678266
0.000669691
0.000666097
0.000658125
0.000651931
0.000639243
0.000623808
0.000595625
0.000568493
0.000641823
0.000620368
0.00064095
0.000672287
0.000691309
0.000693733
0.000688937
0.00068657
0.000691035
0.00070974
0.000713622
0.000725139
0.000735021
0.000747661
0.000760225
0.000766635
0.000766295
0.000758749
0.000748896
0.000740317
0.00073419
0.000731164
0.000729337
0.000728663
0.000727812
0.000727752
0.000727082
0.000726965
0.000725345
0.000724563
0.000720981
0.000719429
0.000715389
0.000712667
0.000708221
0.000704659
0.000699741
0.000695822
0.000690559
0.000685664
0.000679893
0.000675229
0.000666915
0.000663075
0.00065515
0.000648501
0.000636628
0.000620564
0.000592071
0.00056537
0.000636797
0.000657903
0.000789966
0.000870652
0.000876832
0.000851954
0.000838171
0.000794867
0.000697607
0.000680335
0.000684265
0.000694382
0.000687953
0.000674969
0.000650184
0.000702354
0.000665403
0.00065594
0.00066271
0.000674935
0.000693002
0.000711383
0.000729089
0.000743235
0.000756738
0.00076959
0.000782487
0.000792844
0.000800944
0.000804627
0.000807382
0.000809343
0.000810607
0.000812199
0.000811683
0.000811241
0.000810026
0.000810274
0.000810318
0.000810283
0.000809622
0.000806206
0.000801435
0.000791804
0.000785723
0.000775851
0.000765439
0.000764142
0.000749953
0.000787968
0.000839729
0.000750109
0.000738747
0.000639488
0.00061139
0.000598375
0.000617182
0.000643033
0.000647676
0.000622464
0.000609749
0.000602152
0.000587107
0.000624775
0.000624244
0.000604178
0.000654548
0.000658536
0.000642525
0.000653903
0.000669852
0.000687776
0.000707509
0.000722097
0.000734887
0.000744825
0.000756646
0.000767653
0.000781475
0.000792996
0.000800615
0.000804593
0.000806433
0.000809011
0.000808563
0.000807481
0.000804194
0.000800265
0.000797701
0.000793662
0.000794133
0.000791592
0.000790832
0.000787305
0.000783562
0.000776388
0.000766396
0.000763976
0.000752433
0.00079116
0.000850719
0.00079904
0.000641096
0.000627022
0.000594774
0.000594008
0.000591082
0.000582673
0.000595597
0.000622236
0.000638057
0.000620085
0.000607656
0.00057827
0.000609205
0.000607934
0.000610084
0.000615043
0.000625546
0.000639922
0.000655773
0.000670986
0.000687057
0.000701967
0.00071444
0.000724287
0.000732099
0.000738522
0.00074433
0.000750757
0.000756887
0.000763135
0.000768216
0.000774244
0.000778121
0.000781002
0.000781153
0.000778495
0.000774835
0.000769086
0.000763849
0.000759788
0.000753962
0.000750896
0.000747438
0.000740758
0.000735683
0.000732541
0.000723747
0.000755692
0.000812695
0.000924605
0.000635622
0.000644459
0.000662002
0.000655286
0.000665963
0.000673144
0.000648467
0.000657294
0.000669645
0.000649036
0.000631278
0.000631986
0.000600707
0.0006154
0.000623542
0.000631634
0.000643075
0.000660059
0.000678851
0.000695626
0.000713753
0.000731045
0.000746645
0.000758392
0.000767509
0.000773881
0.000778991
0.000783458
0.00078829
0.000793451
0.0007968
0.000801513
0.000804221
0.000808416
0.000810304
0.000810652
0.000807685
0.00080271
0.000795449
0.000789068
0.000780178
0.000774581
0.000770901
0.000761009
0.000759748
0.000754644
0.000743712
0.000774231
0.000830223
0.000700695
0.000636953
0.000588554
0.000632693
0.000654824
0.00064945
0.000608509
0.000723599
0.000633327
0.000654804
0.000631774
0.000608877
0.000600427
0.000608572
0.000619409
0.000630185
0.000637597
0.00064203
0.000647674
0.000657412
0.000669765
0.000681925
0.000692599
0.00070244
0.00071205
0.00072122
0.000729082
0.000735597
0.000740641
0.000744181
0.000748144
0.000749807
0.000751868
0.000752171
0.00075265
0.000753106
0.000753266
0.000753265
0.000751354
0.000748526
0.00074381
0.000738512
0.00073009
0.000727294
0.000716971
0.000713025
0.000709517
0.000702013
0.000733768
0.000781927
0.000672737
0.000631801
0.000636564
0.000622626
0.000605564
0.000588651
0.000606881
0.000643028
0.000675038
0.000699294
0.00074443
0.000812761
0.000877898
0.000942784
0.000997062
0.00104234
0.00109461
0.00114045
0.00119481
0.0012452
0.00128008
0.00130543
0.00132565
0.00134628
0.00136878
0.00138978
0.0014049
0.0014161
0.00142334
0.00142797
0.00142712
0.00142775
0.00142528
0.00142442
0.00141756
0.00141534
0.00140804
0.00140602
0.00139819
0.00139335
0.00137834
0.00137112
0.00134703
0.00133924
0.00131587
0.00130448
0.00128777
0.00126442
0.00124189
0.00125459
0.000764319
0.00083462
0.000961599
0.000912411
0.000873789
0.000847564
0.00086811
0.000868757
0.000829625
0.000849108
0.000872423
0.000917606
0.000988705
0.00107835
0.00116201
0.00121717
0.00125798
0.00130207
0.00134002
0.00137354
0.00140622
0.00143437
0.00145908
0.00147632
0.00149212
0.00150592
0.00152056
0.00153028
0.00154183
0.00154941
0.00155135
0.00154728
0.0015426
0.00153712
0.00152839
0.00152074
0.00150858
0.00150064
0.00148911
0.00148377
0.00146959
0.00146574
0.00144692
0.00143887
0.00141789
0.00140502
0.0013746
0.00134663
0.00130479
0.00131133
0.0010452
0.00107586
0.00114909
0.00114928
0.00100078
0.000871582
0.000819402
0.000755475
0.000740656
0.000758176
0.00082788
0.000877597
0.000926078
0.000993886
0.00108481
0.00117839
0.00124266
0.00128622
0.00132378
0.00135637
0.00138199
0.00140036
0.00141939
0.00143873
0.00145627
0.00147135
0.00148731
0.00149882
0.00150707
0.00151537
0.00152079
0.00152229
0.00151833
0.00151428
0.00150575
0.00150002
0.00148633
0.00147809
0.00146238
0.0014563
0.00143933
0.00143533
0.00141842
0.00141284
0.00139178
0.00138701
0.00135469
0.00133012
0.00127916
0.00128524
0.00113023
0.00103005
0.000964073
0.000999572
0.00101199
0.000944673
0.000849035
0.000990468
0.000755602
0.000802411
0.0008824
0.000959752
0.00101272
0.00106565
0.00110921
0.00118645
0.00126443
0.00132605
0.00136398
0.00139791
0.00142959
0.0014539
0.00147416
0.00149192
0.00150909
0.00151949
0.00153128
0.00154108
0.00154442
0.00154916
0.00155409
0.00155801
0.00155975
0.00155807
0.00155387
0.00155144
0.0015407
0.00153268
0.00151535
0.00150306
0.0014849
0.00147178
0.001455
0.00144744
0.00142353
0.00142259
0.00138914
0.00137165
0.00132434
0.00133724
0.0008697
0.000982948
0.000785886
0.000760209
0.000770497
0.000811587
0.000763763
0.000769661
0.000738166
0.000768028
0.000791986
0.000852266
0.000910132
0.000978698
0.00103551
0.00109295
0.00115871
0.0012287
0.00127873
0.00131539
0.0013466
0.00137345
0.00139578
0.00141348
0.00143021
0.00144291
0.00145386
0.00146458
0.00147274
0.00147843
0.00148172
0.00148409
0.001484
0.00148399
0.00147778
0.00147629
0.00146713
0.00146303
0.00145007
0.00144174
0.00142357
0.00141553
0.00139087
0.00138898
0.00135948
0.0013587
0.00132986
0.00131167
0.00126613
0.00128004
0.00115034
0.00192935
0.00255764
0.00236799
0.00197564
0.00159345
0.00162425
0.00178427
0.00192809
0.00207706
0.00229903
0.00261456
0.00286532
0.0030211
0.00305205
0.00308998
0.00311528
0.00318672
0.00326863
0.00329317
0.00331383
0.00332202
0.00332773
0.00333646
0.00333426
0.00331886
0.00329562
0.00327251
0.00324919
0.00323321
0.00322062
0.00320469
0.00318656
0.00316601
0.00314231
0.00311922
0.00309088
0.00305995
0.00302127
0.00297974
0.00293524
0.00289568
0.00285064
0.00281881
0.00278587
0.00275152
0.00273429
0.0026735
0.00262769
0.00230187
0.000770371
0.00081128
0.000943482
0.00112462
0.00126319
0.00139091
0.00156321
0.00180093
0.00205263
0.00223077
0.00230912
0.00244616
0.00259253
0.00271489
0.00277704
0.00277948
0.00278835
0.00275979
0.00275804
0.00278202
0.00280679
0.00281903
0.00281501
0.00280746
0.00280575
0.00280688
0.00280548
0.00280028
0.00278175
0.00275102
0.00272508
0.00269614
0.00267344
0.00264629
0.00262044
0.00259199
0.00256819
0.00254345
0.00252162
0.00249633
0.00246799
0.00243853
0.00240193
0.00236903
0.00232984
0.00229601
0.00226809
0.00224605
0.00223571
0.00219742
0.000792578
0.000798803
0.000896047
0.00105711
0.00127497
0.00143502
0.00161439
0.0018262
0.00212547
0.00235082
0.00249283
0.00256007
0.00262907
0.00271156
0.00281673
0.00287598
0.00291658
0.00293205
0.00291308
0.00290404
0.0029193
0.00293981
0.00295139
0.00294473
0.00293007
0.00291458
0.0029003
0.00288878
0.00288375
0.00286995
0.00285495
0.00283564
0.00281024
0.00277918
0.002744
0.00270628
0.00266893
0.00263414
0.00260443
0.00257598
0.00254944
0.00252203
0.00249784
0.0024619
0.00243856
0.00239733
0.00237151
0.00233969
0.00232423
0.00222764
0.000793711
0.000812509
0.000878026
0.000996847
0.001207
0.00145199
0.00161822
0.00176374
0.00197973
0.00222812
0.00245795
0.00257217
0.00262631
0.00264967
0.00271391
0.00277097
0.00282998
0.00287484
0.00290684
0.00291708
0.00290405
0.00290071
0.00290368
0.00290179
0.00289081
0.00288052
0.00286797
0.00285189
0.00284064
0.00282972
0.00281476
0.00279802
0.00277651
0.00275175
0.00272187
0.00269006
0.00265666
0.00261606
0.00258096
0.00254304
0.00251545
0.00248092
0.00246523
0.00242874
0.00241439
0.00237987
0.00235812
0.0023282
0.00230542
0.00222634
0.000807205
0.000835035
0.00089958
0.00097647
0.00109971
0.00130991
0.00158054
0.00179081
0.00197826
0.00220802
0.00248846
0.00268049
0.00277986
0.0027895
0.00278986
0.00281396
0.00283682
0.00288047
0.00290586
0.00292725
0.00294844
0.00296279
0.00297275
0.00298122
0.00297524
0.00295673
0.00293278
0.00290951
0.00288687
0.00286812
0.00284719
0.00282881
0.00281315
0.00279648
0.00277724
0.00275271
0.00272436
0.00268625
0.00264929
0.00260409
0.00256885
0.00252411
0.00249656
0.00246068
0.00243546
0.00240644
0.00238425
0.00235551
0.00233965
0.00220893
0.000207844
0.000218811
0.000226844
0.000231104
0.000233645
0.000236636
0.000241181
0.000245977
0.000251244
0.000259886
0.000270456
0.000277094
0.000281559
0.000283027
0.000284214
0.000287414
0.000291513
0.000297568
0.000302526
0.000305876
0.000308289
0.00031041
0.000312188
0.000313019
0.00031329
0.000312775
0.000311506
0.000310286
0.000309032
0.000308017
0.000306639
0.000305599
0.000304247
0.000303237
0.000301632
0.000300149
0.000297877
0.000295702
0.000292879
0.000290347
0.000287454
0.000285012
0.000282318
0.0002802
0.000277629
0.00027561
0.000272934
0.000270986
0.000268132
0.00026401
0.000208371
0.000222266
0.000229515
0.000234918
0.000238054
0.000239988
0.000242226
0.000246087
0.000248562
0.000254387
0.000262571
0.000272598
0.000281765
0.000288986
0.000291638
0.000293587
0.000294194
0.00029628
0.000300517
0.000304489
0.000307098
0.000308924
0.000310877
0.000312534
0.000313639
0.000314101
0.000313756
0.000312348
0.000310563
0.000309078
0.000307317
0.000305741
0.000303965
0.000302595
0.000301068
0.000299827
0.000298212
0.000296574
0.000294382
0.000292114
0.000289371
0.000286825
0.0002839
0.000281545
0.000278827
0.000276828
0.000274134
0.000272151
0.000269281
0.00026495
0.000207733
0.000220011
0.000227794
0.000232779
0.000235941
0.000238254
0.000240518
0.000243947
0.000246369
0.000249874
0.000254935
0.000262923
0.000271433
0.000280409
0.000287347
0.000291524
0.000294656
0.000294975
0.000296698
0.000299528
0.000302091
0.000303973
0.000305405
0.00030688
0.000307982
0.000308952
0.000309703
0.000309783
0.000308835
0.000307604
0.000305826
0.000303921
0.000301771
0.000299983
0.000298005
0.000296503
0.000294692
0.000293341
0.000291309
0.00028982
0.000287426
0.000285615
0.000282796
0.000280707
0.00027786
0.000275815
0.000273124
0.000271172
0.000268233
0.000264089
0.000208132
0.000220828
0.000228829
0.000233915
0.000237228
0.000239754
0.000241081
0.000244908
0.000249459
0.000254225
0.000256397
0.000261487
0.000267923
0.000275524
0.000283271
0.000289312
0.000294989
0.000297674
0.000298243
0.000299619
0.000301603
0.000303277
0.000304322
0.000305125
0.000305712
0.000306094
0.000306683
0.00030696
0.000306734
0.000306069
0.000304942
0.000303691
0.000301782
0.000299932
0.000297629
0.000295776
0.000293548
0.000291897
0.000289783
0.000288171
0.000286039
0.000284266
0.00028196
0.000279865
0.000277379
0.000275241
0.000272701
0.000270727
0.000267867
0.000263837
0.000206918
0.000219171
0.00022745
0.000232681
0.000236007
0.000238955
0.000240793
0.000241476
0.000244772
0.000250915
0.00025437
0.000255255
0.00025738
0.000261313
0.00026934
0.000276011
0.000284948
0.000291698
0.000295091
0.000296745
0.000297975
0.000299306
0.000300171
0.000300409
0.000300403
0.000299949
0.000299798
0.000299926
0.000300147
0.000300168
0.000299742
0.000299381
0.000298402
0.000297334
0.000295427
0.000293537
0.000290997
0.000288825
0.000286276
0.000284351
0.000282186
0.00028054
0.000278633
0.000277001
0.000274857
0.00027309
0.000270659
0.00026903
0.000266093
0.000262656
0.0018341
0.00101199
0.000740809
0.000939549
0.00111122
0.000810129
0.000944948
0.00233055
0.000928563
0.00120037
0.00143469
0.00125677
0.00114227
0.00120033
0.00273395
0.00149913
0.00169869
0.00123954
0.00122125
0.00122625
0.00123921
0.00232323
0.0018359
0.00165271
0.00122063
0.0012373
0.00127105
0.00128058
0.00201123
0.00178641
0.00175406
0.00120179
0.00120579
0.00131968
0.00134238
0.00170417
0.00184349
0.00174256
0.00125406
0.00129169
0.00141497
0.00145813
0.00166786
0.00190363
0.00200999
0.00138216
0.00146221
0.00153846
0.00156766
0.00180376
0.00222397
0.00253949
0.00159593
0.00165813
0.00175141
0.00177444
0.00194724
0.00259601
0.00243023
0.00180407
0.00187401
0.00195093
0.00197557
0.00214936
0.00242218
0.00247386
0.00201413
0.00209665
0.0021286
0.00217019
0.00235102
0.00261676
0.00262161
0.00224435
0.0023215
0.00229018
0.0023205
0.00266514
0.00289368
0.0029771
0.00248063
0.00252657
0.00246488
0.00251894
0.00287524
0.00320154
0.00324804
0.00264093
0.0026655
0.00262119
0.00264839
0.0029821
0.00338912
0.00342531
0.00275281
0.00274406
0.00270483
0.00270376
0.00305049
0.00334782
0.00339228
0.00282717
0.00282912
0.0027265
0.00273169
0.00311662
0.00332102
0.00334901
0.00288025
0.0028844
0.00273986
0.00274562
0.00313856
0.0033088
0.00326584
0.00290779
0.00292265
0.00274305
0.00275223
0.00326598
0.00320166
0.00326057
0.00296762
0.00298241
0.00279652
0.00280647
0.00330367
0.00329825
0.00328725
0.0030154
0.00302762
0.00284617
0.00284492
0.003309
0.00330356
0.00329148
0.00304175
0.00304619
0.0028732
0.00286481
0.00332698
0.00330734
0.00331134
0.00306585
0.00306647
0.00287977
0.00287444
0.00334602
0.0033018
0.00331813
0.00307652
0.00308049
0.00287368
0.00287347
0.00335782
0.00330229
0.00331876
0.00307924
0.00308501
0.0028695
0.00287312
0.0033648
0.00330365
0.00331941
0.00308259
0.00308479
0.00287372
0.00287682
0.00335308
0.00331635
0.00332264
0.00307998
0.00307639
0.00288096
0.00288016
0.00332938
0.00331045
0.00331087
0.00307265
0.00306177
0.00287984
0.00287458
0.00330198
0.00329838
0.00329676
0.00306113
0.00304809
0.00287029
0.00286101
0.00328243
0.00326585
0.00327659
0.00305058
0.00303642
0.00284957
0.00283725
0.00326447
0.00324406
0.00325056
0.00303853
0.00302758
0.00282302
0.00281054
0.00325114
0.00320688
0.00321386
0.00303036
0.00302135
0.00280109
0.0027906
0.00323925
0.00318378
0.00318874
0.00301966
0.00301163
0.00278255
0.00277255
0.00322533
0.00315063
0.00315641
0.00300306
0.00299618
0.00276034
0.00275283
0.00320728
0.00313388
0.00313736
0.00298035
0.00297425
0.00273576
0.00273019
0.00318884
0.00310274
0.00310847
0.0029566
0.00295007
0.00270943
0.00270759
0.00316244
0.00308872
0.0030903
0.00292564
0.00291765
0.00268557
0.00268243
0.00313888
0.00305788
0.00306541
0.00289825
0.00288695
0.0026617
0.00265895
0.00310494
0.00304848
0.00305031
0.00286099
0.00284777
0.00263808
0.00263304
0.00307146
0.00301501
0.00302378
0.00283036
0.00281268
0.00261115
0.00260563
0.00302947
0.00299927
0.00300242
0.00278813
0.00277106
0.00258169
0.00257414
0.00298777
0.00295537
0.00296428
0.00275487
0.00273515
0.00254658
0.00253928
0.00294309
0.00292967
0.00293047
0.00271254
0.00269625
0.00251145
0.00250329
0.00290602
0.00287918
0.00288907
0.00268218
0.0026634
0.00247482
0.00246794
0.00286192
0.00284745
0.00284516
0.00263847
0.00262581
0.00243658
0.00242962
0.00283576
0.00280087
0.00281312
0.00261528
0.00259968
0.00240594
0.00240022
0.00279036
0.00278061
0.0027663
0.00257473
0.00256404
0.00237163
0.00236478
0.00276763
0.0027233
0.00272929
0.0025585
0.00254616
0.0023519
0.00234658
0.00273537
0.00272344
0.0026905
0.00252171
0.00251639
0.00232541
0.00231938
0.00267764
0.0026319
0.00258587
0.0025056
0.00250319
0.00231751
0.00231271
0.00268383
0.00259598
0.00248595
0.00245953
0.00251319
0.00230194
0.00231921
0.00236573
0.00228929
0.00219754
0.0023625
0.00249659
0.00244311
0.00233267
)
;

boundaryField
{
    inlet
    {
        type            calculated;
        value           nonuniform List<scalar> 
28
(
0.000603067
0.000603569
0.00060471
0.000604507
0.000605548
0.000712563
0.000672839
0.000645273
0.000722943
0.000660724
0.000655739
0.00108282
0.00110698
0.00110317
0.000852762
0.00119658
0.000770745
0.000794032
0.000797956
0.000805917
0.000222212
0.000221834
0.000221467
0.000221806
0.000220189
0.000941609
0.000857675
0.00123946
)
;
    }
    outlet
    {
        type            calculated;
        value           nonuniform List<scalar> 
28
(
0.000647773
0.000650466
0.000649007
0.000652337
0.00064792
0.000810088
0.000818516
0.000785279
0.000803356
0.00075592
0.00126879
0.00132339
0.00130021
0.00135511
0.00129848
0.00242219
0.00220398
0.0022367
0.00223462
0.00222163
0.000264345
0.000265348
0.000264461
0.00026422
0.000263039
0.00229801
0.00231668
0.00247993
)
;
    }
    side1
    {
        type            cyclicAMI;
        value           nonuniform List<scalar> 
400
(
0.000619167
0.000679299
0.000771219
0.00104109
0.000207381
0.000643575
0.000713459
0.000807375
0.00158093
0.000218991
0.000669754
0.000729603
0.000711225
0.00202972
0.000227147
0.000687025
0.000754763
0.000691418
0.00192494
0.000231893
0.000695147
0.000753389
0.00068803
0.00169675
0.000234826
0.000690699
0.000743811
0.000700119
0.00150317
0.000237795
0.000683858
0.000701688
0.000685322
0.00161033
0.000240987
0.000686715
0.000710603
0.000706345
0.00178635
0.000243727
0.000704151
0.000656831
0.000706602
0.00194406
0.000248008
0.000716781
0.000669535
0.000733661
0.00211875
0.000255401
0.00073095
0.000663078
0.000768208
0.00235934
0.000262413
0.000741436
0.000648415
0.000832514
0.00263555
0.000266174
0.000751979
0.000637698
0.000894015
0.00283811
0.000269469
0.000759251
0.000629378
0.000960741
0.00294736
0.00027217
0.0007644
0.000660881
0.00101629
0.00296857
0.000276777
0.000764367
0.000647794
0.00106764
0.0030021
0.000281712
0.000758155
0.000646769
0.00112666
0.00302662
0.00028823
0.000749283
0.00065237
0.00118458
0.00308921
0.000294633
0.000741374
0.000661305
0.00123677
0.00315312
0.000298808
0.000735405
0.000675207
0.00128029
0.00317666
0.000301311
0.000732043
0.000690574
0.00131334
0.00319749
0.000303132
0.000729708
0.000705507
0.00133944
0.00320764
0.000304858
0.0007287
0.000717917
0.00136072
0.00321471
0.00030618
0.000727669
0.000729589
0.00137988
0.00322336
0.000306714
0.000727612
0.00074082
0.0013995
0.00321995
0.000306846
0.000726971
0.000751854
0.00141635
0.00320356
0.000306362
0.000726931
0.000760963
0.00142938
0.00318009
0.000305652
0.000725346
0.000768271
0.00144034
0.00315693
0.000305106
0.000724621
0.000772634
0.00144804
0.00313383
0.000304589
0.000721149
0.000775781
0.0014532
0.00311697
0.000304093
0.00071948
0.000778743
0.00145442
0.00310172
0.00030319
0.00071543
0.000780207
0.00145592
0.00308501
0.00030249
0.000712758
0.000782033
0.00145464
0.00306767
0.000301324
0.000708268
0.000781927
0.00145421
0.00304835
0.000300285
0.00070469
0.000781945
0.00144767
0.00302607
0.00029853
0.000699695
0.000781566
0.00144582
0.00300253
0.000296843
0.000695782
0.00078177
0.00143759
0.00297418
0.000294437
0.000690469
0.000781791
0.00143452
0.00294097
0.000292263
0.000685607
0.000780819
0.00142413
0.00290283
0.000289577
0.000679982
0.000779074
0.00141755
0.00286014
0.000287349
0.000675346
0.000775008
0.00140096
0.00281859
0.00028482
0.00066685
0.000769974
0.00139333
0.00277737
0.000282776
0.000663424
0.000760947
0.00136895
0.00273791
0.000280476
0.000655543
0.000756508
0.00136411
0.00270478
0.0002786
0.000648916
0.000746411
0.00133768
0.0026743
0.000276243
0.000637303
0.000739232
0.00133159
0.00264165
0.00027435
0.000621021
0.00073683
0.00130881
0.00262284
0.000271796
0.000592207
0.000725983
0.00128804
0.00257225
0.000270008
0.000564789
0.000760868
0.00125401
0.00253598
0.000267113
0.000635005
0.000810828
0.00126731
0.00227228
0.000263333
0.00150715
0.00100592
0.00089371
0.00185439
0.0011107
0.00122699
0.0021499
0.00110984
0.00112179
0.00189443
0.00114696
0.00113607
0.00172101
0.00116905
0.00116643
0.00157864
0.001298
0.00127341
0.00164005
0.00150319
0.00145087
0.00179964
0.00170408
0.00166342
0.00195711
0.00191012
0.00186441
0.00216804
0.00213522
0.00208128
0.00239478
0.00237933
0.0023289
0.00267003
0.00257988
0.00254985
0.00284487
0.00270511
0.00268905
0.00292078
0.0027598
0.00276552
0.00296751
0.00281552
0.00281425
0.00302025
0.00286001
0.00285729
0.00304249
0.00289292
0.00288321
0.00314323
0.0029471
0.00293744
0.00317701
0.00298545
0.00297746
0.00318745
0.00300499
0.00300209
0.00320645
0.00302559
0.00302519
0.003224
0.00303972
0.00303712
0.00323521
0.00304613
0.00304236
0.00324267
0.00304892
0.00304748
0.00323278
0.00304136
0.0030437
0.00321074
0.00302539
0.0030325
0.00318443
0.00300816
0.00301668
0.0031637
0.00299246
0.00300172
0.00314425
0.00297884
0.002986
0.00312919
0.00296828
0.00297417
0.00311442
0.00295468
0.00295992
0.00309908
0.00293821
0.00294271
0.00308179
0.00291845
0.00292244
0.00306391
0.00289688
0.00290114
0.00303979
0.00286902
0.00287424
0.00301593
0.00284046
0.00284784
0.00298377
0.00280502
0.00281366
0.00294881
0.00276889
0.00278044
0.00290842
0.00272888
0.00274004
0.00286561
0.00268976
0.00270265
0.00282394
0.00265213
0.00266277
0.00278442
0.00261515
0.00262743
0.00274559
0.00258104
0.00258932
0.00271634
0.00255153
0.00256173
0.00267736
0.0025195
0.00252649
0.00265263
0.00249777
0.00250583
0.00262357
0.00247062
0.0024741
0.00257507
0.00245204
0.00245362
0.00257425
0.00245308
0.00241801
0.00231581
0.00239695
0.00230931
)
;
    }
    side2
    {
        type            cyclicAMI;
        value           nonuniform List<scalar> 
250
(
0.000619167
0.000679299
0.000771219
0.00110857
0.000207381
0.000643575
0.000713459
0.000807375
0.00143751
0.000218991
0.000669754
0.000729603
0.000711225
0.00159261
0.000227147
0.000687025
0.000754763
0.000691418
0.00151755
0.000231893
0.000695147
0.000753389
0.00068803
0.00143264
0.000234826
0.000690699
0.000743811
0.000700119
0.00141063
0.000237795
0.000683858
0.000701688
0.000685322
0.00154956
0.000240987
0.000686715
0.000710603
0.000706345
0.00173723
0.000243727
0.000704151
0.000656831
0.000706602
0.00191826
0.000248008
0.000716781
0.000669535
0.000733661
0.00212546
0.000255401
0.00073095
0.000663078
0.000768208
0.00236535
0.000262413
0.000741436
0.000648415
0.000832514
0.00260791
0.000266174
0.000751979
0.000637698
0.000894015
0.00276778
0.000269469
0.000759251
0.000629378
0.000960741
0.00284657
0.00027217
0.0007644
0.000660881
0.00101629
0.00288986
0.000276777
0.000764367
0.000647794
0.00106764
0.00293331
0.000281712
0.000758155
0.000646769
0.00112666
0.00295978
0.00028823
0.000749283
0.00065237
0.00118458
0.00302742
0.000294633
0.000741374
0.000661305
0.00123677
0.00307134
0.000298808
0.000735405
0.000675207
0.00128029
0.00309093
0.000301311
0.000732043
0.000690574
0.00131334
0.00311183
0.000303132
0.000729708
0.000705507
0.00133944
0.00312527
0.000304858
0.0007287
0.000717917
0.00136072
0.00313271
0.00030618
0.000727669
0.000729589
0.00137988
0.00313867
0.000306714
0.000727612
0.00074082
0.0013995
0.00313252
0.000306846
0.000726971
0.000751854
0.00141635
0.00311618
0.000306362
0.000726931
0.000760963
0.00142938
0.00309556
0.000305652
0.000725346
0.000768271
0.00144034
0.00307699
0.000305106
0.000724621
0.000772634
0.00144804
0.00305909
0.000304589
0.000721149
0.000775781
0.0014532
0.00304556
0.000304093
0.00071948
0.000778743
0.00145442
0.00303111
0.00030319
0.00071543
0.000780207
0.00145592
0.00301466
0.00030249
0.000712758
0.000782033
0.00145464
0.00299597
0.000301324
0.000708268
0.000781927
0.00145421
0.00297592
0.000300285
0.00070469
0.000781945
0.00144767
0.00295059
0.00029853
0.000699695
0.000781566
0.00144582
0.00292496
0.000296843
0.000695782
0.00078177
0.00143759
0.00289238
0.000294437
0.000690469
0.000781791
0.00143452
0.002858
0.000292263
0.000685607
0.000780819
0.00142413
0.00281825
0.000289577
0.000679982
0.000779074
0.00141755
0.00277779
0.000287349
0.000675346
0.000775008
0.00140096
0.00273764
0.00028482
0.00066685
0.000769974
0.00139333
0.00269942
0.000282776
0.000663424
0.000760947
0.00136895
0.00266182
0.000280476
0.000655543
0.000756508
0.00136411
0.00263198
0.0002786
0.000648916
0.000746411
0.00133768
0.00259781
0.000276243
0.000637303
0.000739232
0.00133159
0.00257295
0.00027435
0.000621021
0.00073683
0.00130881
0.00254621
0.000271796
0.000592207
0.000725983
0.00128804
0.00251198
0.000270008
0.000564789
0.000760868
0.00125401
0.00249408
0.000267113
0.000635005
0.000810828
0.00126731
0.00232421
0.000263333
)
;
    }
    walls
    {
        type            nutkWallFunction;
        Cmu             0.09;
        kappa           0.41;
        E               9.8;
        value           nonuniform List<scalar> 
250
(
8.76745e-05
8.77298e-05
8.77525e-05
8.77394e-05
8.7778e-05
8.86984e-05
8.85519e-05
8.86513e-05
8.87041e-05
8.87638e-05
8.95425e-05
8.9129e-05
8.91436e-05
8.92081e-05
8.93182e-05
8.98491e-05
8.97123e-05
8.96449e-05
8.95439e-05
8.96511e-05
8.99893e-05
8.99955e-05
9.00256e-05
8.98804e-05
8.98383e-05
9.02465e-05
9.01355e-05
9.02817e-05
9.02768e-05
9.01881e-05
9.08423e-05
9.04685e-05
9.04725e-05
9.04325e-05
9.0665e-05
9.17127e-05
9.11816e-05
9.09124e-05
9.07833e-05
9.08182e-05
9.25972e-05
9.18528e-05
9.14388e-05
9.13335e-05
9.11293e-05
9.37466e-05
9.28218e-05
9.22215e-05
9.21907e-05
9.18517e-05
9.51518e-05
9.39444e-05
9.31474e-05
9.2757e-05
9.24338e-05
9.61405e-05
9.53686e-05
9.43379e-05
9.36532e-05
9.26677e-05
9.68999e-05
9.66276e-05
9.55303e-05
9.46792e-05
9.30417e-05
9.7182e-05
9.76047e-05
9.66982e-05
9.57427e-05
9.36856e-05
9.73839e-05
9.80032e-05
9.76252e-05
9.67809e-05
9.48261e-05
9.77754e-05
9.82558e-05
9.81596e-05
9.76123e-05
9.57772e-05
9.83063e-05
9.82722e-05
9.85248e-05
9.83321e-05
9.70024e-05
9.91692e-05
9.8491e-05
9.85446e-05
9.86907e-05
9.792e-05
9.98265e-05
9.90013e-05
9.86754e-05
9.87156e-05
9.8366e-05
0.000100283
9.9556e-05
9.89829e-05
9.87907e-05
9.85157e-05
0.000100549
9.99339e-05
9.93168e-05
9.89425e-05
9.8538e-05
0.000100721
0.000100177
9.95841e-05
9.91297e-05
9.8577e-05
0.000100811
0.000100347
9.97642e-05
9.92704e-05
9.85848e-05
0.000100802
0.000100444
9.98978e-05
9.93964e-05
9.8574e-05
0.000100745
0.000100441
9.99216e-05
9.94412e-05
9.85361e-05
0.000100618
0.000100385
9.99011e-05
9.9431e-05
9.84481e-05
0.000100386
0.000100233
9.98442e-05
9.93892e-05
9.83604e-05
0.000100162
9.99774e-05
9.97252e-05
9.93037e-05
9.82999e-05
9.98946e-05
9.96436e-05
9.94744e-05
9.912e-05
9.82116e-05
9.96689e-05
9.93625e-05
9.9213e-05
9.89101e-05
9.81165e-05
9.93695e-05
9.90256e-05
9.88635e-05
9.86057e-05
9.79241e-05
9.91222e-05
9.87416e-05
9.85361e-05
9.8329e-05
9.77523e-05
9.87949e-05
9.83913e-05
9.81525e-05
9.79514e-05
9.74693e-05
9.85312e-05
9.81152e-05
9.78477e-05
9.76319e-05
9.72118e-05
9.81613e-05
9.77654e-05
9.74684e-05
9.72297e-05
9.68241e-05
9.78465e-05
9.74876e-05