/*--------------------------------*- C++ -*----------------------------------*\
| =========                 |                                                 |
| \\      /  F ield         | OpenFOAM: The Open Source CFD Toolbox           |
|  \\    /   O peration     | Version:  4.1                                   |
|   \\  /    A nd           | Web:      www.OpenFOAM.org                      |
|    \\/     M anipulation  |                                                 |
\*---------------------------------------------------------------------------*/
FoamFile
{
    version     2.0;
    format      ascii;
    class       volScalarField;
    location    "239";
    object      p;
}
// * * * * * * * * * * * * * * * * * * * * * * * * * * * * * * * * * * * * * //

dimensions      [0 2 -2 0 0 0 0];

internalField   nonuniform List<scalar> 
1600
(
-0.159481
-0.161872
-0.163865
-0.163436
-0.163764
-0.163581
-0.162009
-0.159586
-0.157
-0.153798
-0.150254
-0.146571
-0.143031
-0.140026
-0.13746
-0.13494
-0.132868
-0.130744
-0.128446
-0.126211
-0.123943
-0.121721
-0.119514
-0.11737
-0.115233
-0.113199
-0.111217
-0.109316
-0.1075
-0.105713
-0.103994
-0.102307
-0.100725
-0.09918
-0.0977568
-0.0963795
-0.0951221
-0.0939562
-0.0928556
-0.0920082
-0.0909945
-0.090428
-0.0895536
-0.0891309
-0.0882396
-0.0875196
-0.0857555
-0.0825884
-0.0706772
-0.0584017
-0.159541
-0.161905
-0.163956
-0.163589
-0.163862
-0.163635
-0.162038
-0.159577
-0.156962
-0.153813
-0.150298
-0.146649
-0.1431
-0.140061
-0.137494
-0.134966
-0.13289
-0.130771
-0.128486
-0.126256
-0.123986
-0.12176
-0.119549
-0.117403
-0.115266
-0.113232
-0.11125
-0.109347
-0.10753
-0.105741
-0.104022
-0.102336
-0.100753
-0.0992086
-0.0977848
-0.0964075
-0.0951499
-0.0939839
-0.0928827
-0.092034
-0.091019
-0.0904525
-0.0895768
-0.0891532
-0.088262
-0.0875385
-0.0857778
-0.0826128
-0.0706982
-0.0584145
-0.159529
-0.161891
-0.163934
-0.163582
-0.163816
-0.163621
-0.162036
-0.159585
-0.156921
-0.153694
-0.150204
-0.146569
-0.143071
-0.140046
-0.137514
-0.134986
-0.132899
-0.130761
-0.128467
-0.126237
-0.123974
-0.121752
-0.119542
-0.117395
-0.115259
-0.113226
-0.111245
-0.109346
-0.10753
-0.105741
-0.104021
-0.102334
-0.10075
-0.0992055
-0.0977812
-0.0964037
-0.0951461
-0.0939806
-0.0928797
-0.0920316
-0.091018
-0.0904514
-0.0895747
-0.0891518
-0.0882595
-0.0875325
-0.0857798
-0.0826089
-0.0706937
-0.0584072
-0.159492
-0.161922
-0.163899
-0.163468
-0.163751
-0.163519
-0.161918
-0.159536
-0.157002
-0.15379
-0.150261
-0.146598
-0.143037
-0.140007
-0.137443
-0.134947
-0.132875
-0.130748
-0.128451
-0.126218
-0.123951
-0.121729
-0.11952
-0.117373
-0.115236
-0.113202
-0.11122
-0.10932
-0.107504
-0.105716
-0.103998
-0.102312
-0.10073
-0.0991852
-0.0977609
-0.0963829
-0.0951252
-0.0939595
-0.0928592
-0.0920119
-0.0909988
-0.0904327
-0.089556
-0.0891337
-0.0882412
-0.0875143
-0.0857649
-0.08259
-0.0706776
-0.0583986
-0.159463
-0.161895
-0.16396
-0.163475
-0.163832
-0.163578
-0.161932
-0.159505
-0.15693
-0.153772
-0.150249
-0.146597
-0.143096
-0.140058
-0.137471
-0.134946
-0.132871
-0.130743
-0.128452
-0.126227
-0.123964
-0.121741
-0.11953
-0.117382
-0.115244
-0.113211
-0.11123
-0.109329
-0.107512
-0.105724
-0.104005
-0.10232
-0.100738
-0.0991931
-0.0977688
-0.0963905
-0.0951322
-0.0939661
-0.0928656
-0.0920181
-0.091005
-0.090438
-0.0895627
-0.0891392
-0.0882474
-0.0875228
-0.0857667
-0.0825967
-0.0706824
-0.0584024
-0.117605
-0.120464
-0.124742
-0.126051
-0.126191
-0.124961
-0.122563
-0.120489
-0.118574
-0.115924
-0.113022
-0.110643
-0.108281
-0.106141
-0.104099
-0.101782
-0.0996814
-0.0974458
-0.0949532
-0.092583
-0.0902726
-0.0880968
-0.086027
-0.0841694
-0.0824017
-0.0808519
-0.0793692
-0.0780527
-0.0767839
-0.0756194
-0.0744889
-0.0734578
-0.0724767
-0.0715836
-0.0707505
-0.0700176
-0.0693346
-0.0687773
-0.0682389
-0.0678982
-0.0674609
-0.067305
-0.0669863
-0.0669161
-0.0666452
-0.0662445
-0.0653119
-0.0632981
-0.0546278
-0.0466582
-0.117469
-0.121641
-0.126071
-0.126808
-0.126907
-0.125975
-0.123365
-0.120686
-0.118632
-0.116143
-0.113435
-0.111309
-0.10892
-0.106567
-0.104484
-0.102107
-0.100014
-0.0977778
-0.0953287
-0.092938
-0.0905941
-0.0884098
-0.0863541
-0.084498
-0.0827316
-0.0811706
-0.0796797
-0.078339
-0.0770643
-0.0759
-0.0747668
-0.0737263
-0.0727345
-0.071834
-0.0709993
-0.0702614
-0.0695807
-0.0690175
-0.068483
-0.0681304
-0.0676976
-0.0675265
-0.0672199
-0.0671278
-0.0668768
-0.0664384
-0.0655064
-0.0634839
-0.0548445
-0.0468112
-0.118024
-0.121595
-0.126158
-0.126799
-0.127809
-0.126508
-0.124836
-0.12187
-0.119273
-0.116386
-0.113611
-0.111248
-0.108988
-0.107094
-0.104803
-0.102524
-0.100396
-0.0981204
-0.0956814
-0.0932532
-0.0908643
-0.088631
-0.086552
-0.0846981
-0.0829298
-0.0813803
-0.0798972
-0.0785723
-0.077306
-0.0761452
-0.0750044
-0.0739469
-0.0729368
-0.0720225
-0.071173
-0.0704272
-0.0697368
-0.0691731
-0.0686332
-0.0682881
-0.0678575
-0.067694
-0.0673873
-0.067309
-0.0670514
-0.0665617
-0.0657103
-0.063685
-0.0549898
-0.0469887
-0.118123
-0.121314
-0.126322
-0.126746
-0.127104
-0.125746
-0.123756
-0.121698
-0.118516
-0.116074
-0.11336
-0.111147
-0.108966
-0.106562
-0.104643
-0.102226
-0.100081
-0.0978502
-0.0954099
-0.0930345
-0.0906885
-0.0884796
-0.0863921
-0.0845256
-0.0827533
-0.0811971
-0.0797094
-0.078381
-0.0771066
-0.0759447
-0.0748152
-0.0737805
-0.072791
-0.0718906
-0.0710492
-0.0703073
-0.0696163
-0.0690508
-0.0685082
-0.0681586
-0.0677292
-0.06756
-0.0672497
-0.0671703
-0.0669077
-0.0664108
-0.0656115
-0.0635682
-0.0548595
-0.0468726
-0.118188
-0.121392
-0.126603
-0.12818
-0.127744
-0.126864
-0.12451
-0.12184
-0.119456
-0.116116
-0.113514
-0.111376
-0.109257
-0.107122
-0.105094
-0.102799
-0.100607
-0.0983165
-0.0958468
-0.0934799
-0.091155
-0.0889564
-0.0868591
-0.0849645
-0.0831722
-0.0815961
-0.0801006
-0.0787654
-0.0774821
-0.0763045
-0.075165
-0.0741239
-0.0731346
-0.0722269
-0.0713818
-0.0706302
-0.0699342
-0.069358
-0.0688106
-0.0684527
-0.0680164
-0.0678425
-0.0675223
-0.0674385
-0.0671613
-0.0666805
-0.0658163
-0.0638308
-0.055053
-0.0471142
-0.0418385
-0.0420262
-0.0411152
-0.0453705
-0.0504929
-0.0502025
-0.0505854
-0.0459441
-0.0432348
-0.0406509
-0.0377942
-0.0343197
-0.0311218
-0.0288576
-0.0266371
-0.0243209
-0.022525
-0.0207523
-0.0191341
-0.018121
-0.0175567
-0.0172485
-0.0169753
-0.01674
-0.0164687
-0.0163401
-0.0162392
-0.0163208
-0.0164171
-0.0165915
-0.0167494
-0.0170567
-0.0174204
-0.0178971
-0.0183789
-0.0189413
-0.019465
-0.0200905
-0.0206853
-0.021396
-0.0220617
-0.0228198
-0.0235624
-0.0243116
-0.0251415
-0.0256939
-0.0262775
-0.0263371
-0.0232469
-0.022664
-0.0410383
-0.0480993
-0.0450502
-0.0472147
-0.0478569
-0.0488727
-0.0464147
-0.0432056
-0.0406886
-0.0381268
-0.0357755
-0.0339314
-0.0315396
-0.0287668
-0.0272877
-0.0249048
-0.023523
-0.0217401
-0.0203093
-0.0191356
-0.0183339
-0.0178262
-0.0174921
-0.0172645
-0.0170378
-0.0169465
-0.0168718
-0.0169624
-0.0171005
-0.0172937
-0.0174569
-0.0177294
-0.0180403
-0.0184515
-0.0188879
-0.0194158
-0.0199194
-0.0205257
-0.0211088
-0.0217947
-0.0224603
-0.0231906
-0.0239434
-0.0247118
-0.0255408
-0.0260824
-0.0267593
-0.026579
-0.0236987
-0.023357
-0.0400092
-0.0434777
-0.0382573
-0.0375723
-0.0393753
-0.0411215
-0.0413465
-0.0406584
-0.0392101
-0.0369438
-0.0362351
-0.0329103
-0.02975
-0.0272521
-0.0240827
-0.0215669
-0.0200111
-0.0185595
-0.0173414
-0.0163937
-0.0158162
-0.0154912
-0.0152697
-0.0150586
-0.0148331
-0.0147248
-0.0146567
-0.0147588
-0.014923
-0.0151346
-0.0153796
-0.0157381
-0.0161525
-0.0166365
-0.0171381
-0.0176962
-0.0182342
-0.0188522
-0.0194608
-0.0201528
-0.0208486
-0.0215904
-0.0223557
-0.0231465
-0.0239832
-0.0245408
-0.0252958
-0.0251709
-0.022437
-0.0224963
-0.0402166
-0.0435085
-0.0394141
-0.0412208
-0.0433693
-0.0438676
-0.0443401
-0.0435254
-0.0441571
-0.0413628
-0.037483
-0.0334481
-0.031293
-0.0286538
-0.0259413
-0.0230776
-0.0209159
-0.0193724
-0.0181795
-0.0175165
-0.0169315
-0.0165245
-0.0162115
-0.0159484
-0.0157201
-0.01557
-0.0154676
-0.0154721
-0.0155329
-0.0157243
-0.0159899
-0.0163759
-0.0167932
-0.0172678
-0.0177576
-0.0183007
-0.0188443
-0.019443
-0.0200527
-0.0207208
-0.0213931
-0.0220974
-0.022855
-0.0235635
-0.0244374
-0.024976
-0.0256957
-0.0256782
-0.0229029
-0.0228073
-0.0394718
-0.0395152
-0.0395089
-0.0407592
-0.0454812
-0.0464008
-0.0448827
-0.0435949
-0.0425792
-0.041067
-0.0373739
-0.0339563
-0.0309466
-0.0281422
-0.0257519
-0.0230002
-0.0210588
-0.0193154
-0.0180438
-0.0172946
-0.016673
-0.0162001
-0.0158427
-0.0156177
-0.0154486
-0.0153983
-0.015364
-0.0154371
-0.0155163
-0.0156772
-0.0158736
-0.0161876
-0.0165706
-0.0170208
-0.0175188
-0.018064
-0.018631
-0.019249
-0.0198821
-0.0205852
-0.0212738
-0.0220037
-0.0227859
-0.0234953
-0.0243841
-0.0249301
-0.0255836
-0.0257157
-0.0227237
-0.0228068
0.048633
0.0535456
0.0600281
0.0642724
0.0606174
0.0532574
0.0475129
0.0466239
0.0495784
0.0506568
0.0524572
0.0542259
0.0568667
0.05765
0.0574937
0.0569733
0.0555142
0.0533823
0.0527393
0.0509465
0.0492885
0.0476881
0.0460415
0.0443966
0.0428361
0.0413122
0.0398153
0.0382638
0.0367466
0.0351686
0.0335067
0.0318794
0.0301764
0.0285058
0.0267667
0.0250725
0.0233932
0.0217384
0.0201087
0.0185028
0.0168856
0.0153168
0.0137026
0.0121238
0.01055
0.00892578
0.00739897
0.00515735
0.0041008
-0.00148862
0.0730703
0.0444503
0.0429556
0.0504377
0.0542245
0.0553615
0.0572157
0.0646137
0.0729296
0.0794374
0.0805836
0.0789106
0.0794408
0.077563
0.0753751
0.0722749
0.0691233
0.0665547
0.0640146
0.0624352
0.060929
0.059347
0.0573791
0.0553393
0.0533203
0.0513998
0.0495372
0.0478062
0.0457378
0.0436054
0.0416991
0.0399092
0.0381294
0.0362835
0.0343724
0.0324231
0.0304853
0.028587
0.0267573
0.0249546
0.0231853
0.0214696
0.0196927
0.0179647
0.0159195
0.0142435
0.0122119
0.0102598
0.00738998
0.00249775
0.0742025
0.0454652
0.048843
0.0562191
0.0642445
0.0702274
0.0761175
0.0811591
0.0866364
0.0906794
0.0862034
0.0865117
0.0854771
0.0816461
0.0788056
0.0756454
0.072718
0.0699167
0.0673207
0.0658
0.0642492
0.0629222
0.0609812
0.0586628
0.0563911
0.0539116
0.0516569
0.0494026
0.0472973
0.0452276
0.0434307
0.04164
0.0398914
0.0380091
0.0361387
0.0341193
0.0322
0.0301331
0.0282384
0.0262031
0.0243644
0.0223991
0.0206259
0.0186876
0.0168543
0.0150397
0.0131264
0.01127
0.0084968
0.0027235
0.0740281
0.046314
0.0421479
0.0516843
0.0601186
0.0662367
0.070809
0.0740146
0.0772136
0.0788168
0.082286
0.082812
0.0808366
0.0784985
0.0756601
0.0730236
0.0705599
0.0678734
0.0659123
0.0634287
0.0608765
0.05888
0.0572883
0.0558408
0.0542083
0.0524682
0.0505166
0.0485233
0.0465075
0.0445059
0.0424057
0.0403095
0.0382584
0.0363149
0.0344368
0.0325967
0.0307833
0.0289524
0.0271416
0.0253326
0.0235007
0.0218015
0.019986
0.0183218
0.0165382
0.014807
0.0128406
0.0108065
0.00770607
0.00177037
0.0750767
0.0520238
0.0571511
0.0614215
0.0669508
0.0736188
0.0804081
0.0828272
0.0833465
0.084342
0.0848698
0.0857353
0.0845824
0.0827733
0.079732
0.0776091
0.0748057
0.0714907
0.0689269
0.0663667
0.0639415
0.0618982
0.0600727
0.0583394
0.0565085
0.0545914
0.05252
0.050395
0.0482787
0.0462145
0.0440875
0.042015
0.0399751
0.0380328
0.0361314
0.0342542
0.0324189
0.0305365
0.0287024
0.0267999
0.0249781
0.0231135
0.0213351
0.0195069
0.017791
0.0159409
0.0141767
0.0115368
0.00895707
0.0021248
0.253943
0.261491
0.258967
0.256828
0.252243
0.245988
0.240186
0.23018
0.221612
0.213687
0.205889
0.197126
0.188692
0.183082
0.178834
0.174506
0.170623
0.165737
0.159399
0.154358
0.149856
0.145305
0.140784
0.136441
0.132162
0.128147
0.124169
0.120497
0.116467
0.112393
0.108504
0.104925
0.101495
0.0981694
0.0948085
0.0915023
0.0881272
0.0849313
0.0816919
0.0787261
0.0756411
0.0728773
0.0699211
0.0671457
0.0640677
0.06089
0.0576673
0.053009
0.0458611
0.0351439
0.267176
0.29447
0.291503
0.281253
0.271043
0.260083
0.248071
0.235649
0.223997
0.215868
0.209189
0.203497
0.195104
0.18822
0.182509
0.177462
0.172698
0.170573
0.165444
0.160449
0.155677
0.151052
0.146525
0.141859
0.137186
0.132562
0.128177
0.123982
0.120439
0.116965
0.113363
0.109733
0.106104
0.102599
0.0990527
0.0956308
0.092152
0.0887699
0.0853721
0.0821156
0.0789005
0.0758542
0.0728586
0.0700338
0.0673749
0.064284
0.0609223
0.0560815
0.04861
0.0386298
0.268434
0.28308
0.276242
0.26675
0.256598
0.246794
0.237172
0.227009
0.215914
0.207529
0.202833
0.196534
0.191305
0.186726
0.18177
0.176085
0.170902
0.166087
0.161464
0.156248
0.150785
0.145556
0.141281
0.137447
0.133612
0.129865
0.125949
0.122004
0.117984
0.114118
0.110117
0.106255
0.10248
0.0989875
0.0955902
0.0923842
0.0891682
0.0860938
0.0829286
0.0799552
0.0768158
0.0739892
0.0709169
0.0681825
0.0652492
0.0622639
0.0588815
0.0538401
0.0467927
0.037098
0.26511
0.280388
0.274917
0.267029
0.26071
0.251898
0.242871
0.234853
0.224939
0.214835
0.206466
0.200045
0.193667
0.187874
0.182599
0.177578
0.172237
0.166918
0.161528
0.157155
0.153714
0.149136
0.144268
0.139454
0.134889
0.130576
0.126508
0.122626
0.118763
0.114882
0.111219
0.107637
0.104086
0.100567
0.0970465
0.0936566
0.0902873
0.0870877
0.0838479
0.0807794
0.0776265
0.0746251
0.07157
0.0686226
0.0656179
0.0624959
0.05931
0.0543511
0.0474253
0.0375465
0.263991
0.279545
0.269112
0.262026
0.255915
0.250885
0.241511
0.231878
0.223928
0.214371
0.205226
0.197532
0.191579
0.186116
0.181672
0.175638
0.171048
0.166812
0.161954
0.157104
0.152139
0.147324
0.142814
0.138384
0.134091
0.129895
0.125926
0.121946
0.11828
0.11476
0.111159
0.107481
0.103728
0.100092
0.0964673
0.0930164
0.0896221
0.0863975
0.0832048
0.0801782
0.0771124
0.0742238
0.0712667
0.0683812
0.0656782
0.0625842
0.0594348
0.054409
0.0473147
0.0372987
0.055294
0.0464875
0.0522586
0.104385
0.0998674
0.108257
0.091601
0.0543241
0.0470033
0.0452308
0.0827411
0.0793521
0.0715903
0.0665316
0.0563831
0.0469073
0.046114
0.0770089
0.0786344
0.0628169
0.0660357
0.0603996
0.0518048
0.0529771
0.0823247
0.0876924
0.0642085
0.0694046
0.0569307
0.0550632
0.0552903
0.0921072
0.0972699
0.0785432
0.0877694
0.0515679
0.0562958
0.0557493
0.103458
0.106579
0.0894392
0.0950578
0.0473798
0.0572154
0.0540864
0.113078
0.11536
0.100628
0.102182
0.0498624
0.0580222
0.0570014
0.119622
0.12232
0.107222
0.107916
0.0520584
0.0597973
0.0593876
0.123808
0.124639
0.110885
0.110074
0.0533578
0.0613668
0.0613478
0.120902
0.121771
0.109489
0.109665
0.0541067
0.0617439
0.060506
0.118331
0.117562
0.108242
0.107039
0.0566978
0.061404
0.0612393
0.115069
0.11363
0.104583
0.102846
0.058629
0.0619221
0.0620829
0.109706
0.109124
0.100161
0.0986943
0.0592051
0.0617859
0.0621359
0.105406
0.104886
0.096236
0.094448
0.0585507
0.0610585
0.0609887
0.101381
0.100882
0.0923008
0.0904576
0.0573465
0.0598481
0.0592535
0.0972987
0.0971815
0.0879255
0.0871057
0.0556245
0.0578791
0.0565963
0.09516
0.0942582
0.086215
0.0838324
0.0539097
0.0556733
0.0554161
0.0887902
0.0891723
0.0798304
0.0801054
0.0526388
0.0544285
0.0533866
0.0880264
0.0875915
0.079751
0.0785856
0.0510704
0.0524814
0.0518366
0.085208
0.0850112
0.0770887
0.0761216
0.0494467
0.0509875
0.0504399
0.0822061
0.0820224
0.0744966
0.0735757
0.0477195
0.0495948
0.0488927
0.0791422
0.0789448
0.0719568
0.0710516
0.0459853
0.0479476
0.0471349
0.0764121
0.0761847
0.0695856
0.0686618
0.0443539
0.0461672
0.045397
0.0739033
0.0736982
0.0672438
0.066355
0.0428306
0.0444696
0.0437695
0.0716348
0.0714241
0.0650553
0.0641227
0.0413364
0.0428399
0.0422379
0.0692903
0.0691047
0.0627378
0.0618473
0.0398384
0.0413105
0.0407294
0.0670143
0.0667718
0.0605526
0.0595801
0.0383002
0.0397791
0.0392446
0.0643987
0.0642157
0.0580991
0.0572132
0.0366725
0.0382294
0.0375554
0.0619743
0.0617467
0.0558481
0.0549412
0.0350161
0.0364834
0.0357516
0.059704
0.0594024
0.0536419
0.0527232
0.0333877
0.0347392
0.0340251
0.0573254
0.057029
0.0514193
0.0504895
0.0317213
0.0330297
0.0323344
0.0548576
0.0545893
0.0490735
0.0482311
0.0300139
0.0313565
0.0306719
0.0523414
0.0521157
0.0467973
0.0459867
0.028274
0.0296748
0.0289584
0.0498925
0.0496643
0.0445178
0.0437578
0.0265344
0.0279602
0.0272512
0.0475164
0.0473005
0.0423616
0.041597
0.0248355
0.026238
0.0255455
0.0452257
0.0450041
0.0402027
0.0394595
0.0231583
0.0245483
0.0238756
0.0430642
0.0428268
0.0381821
0.0373967
0.021535
0.0228613
0.0222384
0.040903
0.0406647
0.0360903
0.0353209
0.0199113
0.0212371
0.0206375
0.0388203
0.0385816
0.0341073
0.0333075
0.018304
0.0196098
0.0190279
0.0367185
0.0364777
0.0320379
0.0312677
0.0166869
0.0180231
0.017436
0.0346305
0.0344149
0.0300563
0.029279
0.0151012
0.0164335
0.0158509
0.0325698
0.032337
0.0280412
0.0273003
0.013451
0.0148198
0.0142019
0.0304975
0.0303007
0.0260581
0.025336
0.0118992
0.0132451
0.0126406
0.0284358
0.0282404
0.0241184
0.0233861
0.0102421
0.0115271
0.0108315
0.0265817
0.0264166
0.0222572
0.0216527
0.00868714
0.0100026
0.00930347
0.0245957
0.0243552
0.0202876
0.0196584
0.00693802
0.00820997
0.00731199
0.0226573
0.0223341
0.0184202
0.0176968
0.00487085
0.00650232
0.00544824
0.0196886
0.0192848
0.015774
0.0148694
0.00232262
0.00523873
0.00322068
0.0161652
0.0148237
0.0116351
0.0107638
-0.00218303
0.00177922
-0.00136717
0.0078783
0.00619003
0.00672702
0.00359832
)
;

boundaryField
{
    inlet
    {
        type            zeroGradient;
    }
    outlet
    {
        type            fixedValue;
        value           uniform 0;
    }
    side1
    {
        type            cyclicAMI;
        value           nonuniform List<scalar> 
400
(
-0.159472
-0.117897
-0.0406552
0.0570525
0.258967
-0.161884
-0.120928
-0.0407707
0.0530611
0.270518
-0.163912
-0.125672
-0.040312
0.0591121
0.26404
-0.163456
-0.127116
-0.0430649
0.0633647
0.259427
-0.163798
-0.126967
-0.0479871
0.0626339
0.254079
-0.163579
-0.125913
-0.0483017
0.0597403
0.248437
-0.16197
-0.123537
-0.0477341
0.0579865
0.240849
-0.159545
-0.121165
-0.0447695
0.0581508
0.231029
-0.156965
-0.119015
-0.042907
0.0603299
0.22277
-0.153785
-0.11602
-0.0408589
0.0613819
0.214029
-0.150252
-0.113268
-0.0375841
0.0627771
0.205557
-0.146584
-0.111009
-0.034138
0.0642583
0.197329
-0.143063
-0.108769
-0.0310342
0.0656912
0.190136
-0.140042
-0.106632
-0.0284999
0.0656491
0.184599
-0.137466
-0.104597
-0.0261945
0.0645742
0.180253
-0.134943
-0.102291
-0.0236605
0.0635436
0.175072
-0.13287
-0.100144
-0.0217919
0.0616565
0.170835
-0.130743
-0.0978812
-0.0200338
0.0591479
0.166274
-0.128449
-0.0954
-0.0185889
0.0578933
0.160677
-0.126219
-0.0930314
-0.0177078
0.0558561
0.155731
-0.123953
-0.0907138
-0.0171149
0.0539539
0.150998
-0.121731
-0.0885266
-0.0167243
0.0522125
0.146315
-0.119522
-0.0864431
-0.016409
0.0505089
0.141799
-0.117376
-0.0845669
-0.0161789
0.0488359
0.137413
-0.115238
-0.082787
-0.0159586
0.0471893
0.133126
-0.113205
-0.081224
-0.0158692
0.0455402
0.129021
-0.111223
-0.0797349
-0.0158016
0.0438604
0.125047
-0.109322
-0.078409
-0.0158789
0.0421263
0.121222
-0.107506
-0.077133
-0.0159667
0.0404183
0.117373
-0.105719
-0.0759619
-0.0161344
0.0386855
0.113576
-0.104
-0.0748269
-0.0163115
0.0368756
0.109832
-0.102314
-0.0737908
-0.0166221
0.0351065
0.106203
-0.100731
-0.0728057
-0.0169955
0.0332962
0.102611
-0.0991866
-0.0719053
-0.017459
0.0315391
0.0991307
-0.0977628
-0.0710661
-0.0179488
0.0297483
0.0956379
-0.096385
-0.0703239
-0.0185027
0.0279959
0.0922594
-0.0951271
-0.0696344
-0.019048
0.0262669
0.0888746
-0.0939611
-0.0690676
-0.0196697
0.0245397
0.0856644
-0.0928606
-0.0685248
-0.0202837
0.0228449
0.0824484
-0.0920132
-0.0681754
-0.0209906
0.0211445
0.0794521
-0.0909998
-0.0677386
-0.0216677
0.0194622
0.0763767
-0.090433
-0.0675738
-0.0224117
0.0177992
0.0735505
-0.0895582
-0.0672543
-0.0231742
0.0161327
0.0705939
-0.0891351
-0.0671773
-0.0239035
0.0144745
0.0677635
-0.0882435
-0.0669032
-0.0247628
0.0128555
0.064873
-0.0875212
-0.0664625
-0.025312
0.0111593
0.0617371
-0.0857611
-0.0655641
-0.0259306
0.00955695
0.058551
-0.0825925
-0.0635645
-0.0260264
0.00718851
0.053709
-0.0706798
-0.0548404
-0.0229853
0.005647
0.0465879
-0.0584021
-0.0468862
-0.0227354
-0.000338137
0.0362213
0.0615927
0.0912809
0.0942338
0.0535917
0.0698866
0.0721019
0.0566277
0.0711935
0.070131
0.060725
0.0785932
0.0750847
0.060121
0.0867686
0.083394
0.0585887
0.0951626
0.0931227
0.0578957
0.103254
0.101763
0.0603581
0.108641
0.106878
0.0620203
0.110337
0.109794
0.063223
0.108807
0.108239
0.0639014
0.106239
0.106742
0.0659431
0.103968
0.104909
0.0668923
0.100624
0.101004
0.0667091
0.097227
0.0975671
0.0652947
0.0935566
0.0938827
0.063798
0.0904024
0.090479
0.0617316
0.0875206
0.0881101
0.0595074
0.0830481
0.0827983
0.0578248
0.0811268
0.0814111
0.0559406
0.0785535
0.0786821
0.0540617
0.0757599
0.0758799
0.0522339
0.0730406
0.0731696
0.0504706
0.0706042
0.0707528
0.0488068
0.0683785
0.0685126
0.0471855
0.066258
0.0663957
0.0455567
0.0640778
0.0641992
0.0438761
0.0618355
0.0619941
0.0421511
0.0594288
0.0595484
0.0403678
0.0570819
0.0572307
0.0385816
0.0548346
0.0550318
0.0367944
0.0525466
0.0527404
0.0349987
0.0502341
0.0504094
0.0331855
0.0479107
0.0480582
0.0313811
0.0456357
0.0457848
0.02959
0.043432
0.0435731
0.0278343
0.0412808
0.0414256
0.0261068
0.0392219
0.0393771
0.024401
0.0371567
0.0373125
0.0227103
0.0351599
0.0353158
0.021009
0.0331257
0.0332831
0.0193268
0.0311464
0.0312873
0.0176523
0.0291424
0.0292945
0.0159612
0.0271953
0.027324
0.0143214
0.0252154
0.0253432
0.0126456
0.023429
0.0235369
0.0109967
0.0214408
0.021598
0.00924276
0.0195087
0.0197199
0.00699322
0.0166012
0.0168651
0.00443498
0.0127917
0.0136686
-0.000811453
0.004782
0.00588552
)
;
    }
    side2
    {
        type            cyclicAMI;
        value           nonuniform List<scalar> 
250
(
-0.159472
-0.117897
-0.0406552
0.0763901
0.258967
-0.161884
-0.120928
-0.0407707
0.0623454
0.270518
-0.163912
-0.125672
-0.040312
0.0644
0.26404
-0.163456
-0.127116
-0.0430649
0.0695968
0.259427
-0.163798
-0.126967
-0.0479871
0.0734776
0.254079
-0.163579
-0.125913
-0.0483017
0.0770199
0.248437
-0.16197
-0.123537
-0.0477341
0.0806915
0.240849
-0.159545
-0.121165
-0.0447695
0.084015
0.231029
-0.156965
-0.119015
-0.042907
0.0861322
0.22277
-0.153785
-0.11602
-0.0408589
0.0858969
0.214029
-0.150252
-0.113268
-0.0375841
0.0853666
0.205557
-0.146584
-0.111009
-0.034138
0.0851815
0.197329
-0.143063
-0.108769
-0.0310342
0.0839144
0.190136
-0.140042
-0.106632
-0.0284999
0.082115
0.184599
-0.137466
-0.104597
-0.0261945
0.0796285
0.180253
-0.134943
-0.102291
-0.0236605
0.0773361
0.175072
-0.13287
-0.100144
-0.0217919
0.0750283
0.170835
-0.130743
-0.0978812
-0.0200338
0.0713725
0.166274
-0.128449
-0.0954
-0.0185889
0.0698092
0.160677
-0.126219
-0.0930314
-0.0177078
0.067496
0.155731
-0.123953
-0.0907138
-0.0171149
0.0651423
0.150998
-0.121731
-0.0885266
-0.0167243
0.0628828
0.146315
-0.119522
-0.0864431
-0.016409
0.0607956
0.141799
-0.117376
-0.0845669
-0.0161789
0.058839
0.137413
-0.115238
-0.082787
-0.0159586
0.0569576
0.133126
-0.113205
-0.081224
-0.0158692
0.0550382
0.129021
-0.111223
-0.0797349
-0.0158016
0.0530805
0.125047
-0.109322
-0.078409
-0.0158789
0.0509953
0.121222
-0.107506
-0.077133
-0.0159667
0.0489503
0.117373
-0.105719
-0.0759619
-0.0161344
0.0469541
0.113576
-0.104
-0.0748269
-0.0163115
0.0449048
0.109832
-0.102314
-0.0737908
-0.0166221
0.0428471
0.106203
-0.100731
-0.0728057
-0.0169955
0.0407671
0.102611
-0.0991866
-0.0719053
-0.017459
0.0387344
0.0991307
-0.0977628
-0.0710661
-0.0179488
0.0367307
0.0956379
-0.096385
-0.0703239
-0.0185027
0.0347749
0.0922594
-0.0951271
-0.0696344
-0.019048
0.0328805
0.0888746
-0.0939611
-0.0690676
-0.0196697
0.0309862
0.0856644
-0.0928606
-0.0685248
-0.0202837
0.0291382
0.0824484
-0.0920132
-0.0681754
-0.0209906
0.0272676
0.0794521
-0.0909998
-0.0677386
-0.0216677
0.0254295
0.0763767
-0.090433
-0.0675738
-0.0224117
0.0235924
0.0735505
-0.0895582
-0.0672543
-0.0231742
0.0217708
0.0705939
-0.0891351
-0.0671773
-0.0239035
0.0199526
0.0677635
-0.0882435
-0.0669032
-0.0247628
0.0182291
0.064873
-0.0875212
-0.0664625
-0.025312
0.0164081
0.0617371
-0.0857611
-0.0655641
-0.0259306
0.0146141
0.058551
-0.0825925
-0.0635645
-0.0260264
0.012013
0.053709
-0.0706798
-0.0548404
-0.0229853
0.00922134
0.0465879
-0.0584021
-0.0468862
-0.0227354
0.00244136
0.0362213
)
;
    }
    walls
    {
        type            zeroGradient;
    }
}


// ************************************************************************* //
