/*--------------------------------*- C++ -*----------------------------------*\
| =========                 |                                                 |
| \\      /  F ield         | OpenFOAM: The Open Source CFD Toolbox           |
|  \\    /   O peration     | Version:  4.1                                   |
|   \\  /    A nd           | Web:      www.OpenFOAM.org                      |
|    \\/     M anipulation  |                                                 |
\*---------------------------------------------------------------------------*/
FoamFile
{
    version     2.0;
    format      ascii;
    class       surfaceScalarField;
    location    "239";
    object      phi;
}
// * * * * * * * * * * * * * * * * * * * * * * * * * * * * * * * * * * * * * //

dimensions      [0 3 -1 0 0 0 0];

internalField   nonuniform List<scalar> 
4422
(
0.00154731
0.00256827
-2.19174e-06
0.0015507
0.00251462
-1.49805e-05
0.00155155
0.00244018
-2.0138e-05
0.00155218
0.00237288
-2.09084e-05
0.00155238
0.00231332
-1.96193e-05
0.00155102
0.00228709
-5.70306e-06
0.00154799
0.00231002
8.4945e-07
0.00154431
0.00235081
2.4884e-06
0.00153968
0.00238185
1.19239e-05
0.00153468
0.0023966
1.26019e-05
0.00152938
0.00239213
9.68605e-06
0.0015241
0.00236209
1.46616e-06
0.00151912
0.00231087
-6.05604e-06
0.00151514
0.00225456
-1.5706e-06
0.00151132
0.00221453
-1.17487e-06
0.00150811
0.00219121
-2.02056e-06
0.00150502
0.00218536
-1.97582e-06
0.00150178
0.00219194
-3.52146e-07
0.00149849
0.00220556
-8.1627e-07
0.00149518
0.0022192
-1.60404e-06
0.00149187
0.00222793
-1.73975e-06
0.0014886
0.00222983
-1.25796e-06
0.00148539
0.00222631
-5.63784e-07
0.00148224
0.00221735
-2.86792e-07
0.00147923
0.00220537
-4.89958e-07
0.00147629
0.00218897
-1.0106e-06
0.00147352
0.00217171
-1.51424e-06
0.0014708
0.0021508
-1.79751e-06
0.00146818
0.00213069
-1.73883e-06
0.00146558
0.00210811
-1.61749e-06
0.00146306
0.00208716
-1.39657e-06
0.00146056
0.0020635
-1.18812e-06
0.00145818
0.00204159
-1.0554e-06
0.00145586
0.00201759
-6.3118e-07
0.00145374
0.0019957
-4.50921e-07
0.0014517
0.00197212
-3.6419e-07
0.00144994
0.00195099
-5.79996e-07
0.00144826
0.00192863
-9.11628e-07
0.00144699
0.00190721
-1.6574e-06
0.00144571
0.00188762
-2.02496e-06
0.00144497
0.00186488
-2.70787e-06
0.00144403
0.0018488
-2.62659e-06
0.0014437
0.00182448
-2.99127e-06
0.00144294
0.00181193
-2.62014e-06
0.00144239
0.00178721
-2.73307e-06
0.00144061
0.00177653
-7.2312e-07
0.00143567
0.00174109
1.82357e-06
0.00142319
0.00175467
9.60831e-06
0.00137201
0.00164389
4.88e-05
0.00148895
0.000105718
0.00154728
0.00256319
2.88623e-06
0.00155071
0.00251135
-1.61328e-07
0.00155157
0.00244315
-3.82996e-06
0.00155214
0.00236892
3.38267e-06
0.00155233
0.00230956
3.58012e-06
0.00155094
0.00228616
2.32772e-06
0.00154798
0.0023089
4.10454e-06
0.00154438
0.00235649
-2.01828e-06
0.00153978
0.00239097
-4.50012e-06
0.00153471
0.00239201
9.51115e-06
0.00152936
0.00238287
1.45711e-05
0.00152406
0.00234935
1.80876e-05
0.00151908
0.00230305
1.28045e-05
0.0015151
0.00225254
5.99807e-06
0.00151129
0.00221443
3.93758e-06
0.00150812
0.00219349
8.87667e-07
0.00150505
0.00218911
-6.63429e-07
0.00150181
0.00219442
7.72561e-07
0.0014985
0.00220594
2.92497e-06
0.00149518
0.00221839
4.13147e-06
0.00149187
0.00222723
4.03869e-06
0.00148861
0.00222965
3.44832e-06
0.00148539
0.0022263
3.24804e-06
0.00148225
0.00221703
3.47363e-06
0.00147923
0.00220466
3.77754e-06
0.0014763
0.0021882
3.75319e-06
0.00147353
0.00217113
3.47277e-06
0.00147082
0.00215084
2.81462e-06
0.00146821
0.00213133
2.18006e-06
0.00146561
0.00210911
1.88074e-06
0.00146308
0.00208828
1.71075e-06
0.00146059
0.00206459
1.80669e-06
0.00145823
0.00204265
1.69043e-06
0.00145591
0.00201842
2.00272e-06
0.00145379
0.00199621
2.13279e-06
0.00145174
0.00197227
2.42589e-06
0.00144998
0.00195073
2.56212e-06
0.00144829
0.0019282
2.63859e-06
0.00144703
0.00190669
2.27062e-06
0.00144576
0.00188733
1.98619e-06
0.001445
0.00186485
1.29762e-06
0.00144407
0.00184921
9.83271e-07
0.00144375
0.00182501
1.57395e-07
0.001443
0.00181244
5.93877e-07
0.00144247
0.00178823
-7.41651e-08
0.00144067
0.0017769
1.72781e-06
0.0014357
0.0017415
4.9145e-06
0.00142322
0.0017551
1.24065e-05
0.00137207
0.00164407
5.15951e-05
0.00148959
0.000108115
0.00154725
0.00256213
-1.11422e-06
0.00155069
0.00250449
3.42946e-06
0.0015516
0.00244306
-8.26585e-07
0.00155216
0.00235835
1.00076e-05
0.00155237
0.00230201
7.33537e-06
0.00155094
0.00228019
7.40499e-06
0.00154787
0.00229245
1.95362e-05
0.00154427
0.00234356
1.66392e-05
0.00153972
0.00239507
4.19604e-07
0.00153473
0.00240954
-1.25004e-05
0.00152939
0.00239646
-8.24862e-06
0.0015241
0.00235621
-1.66915e-06
0.00151912
0.00230133
6.74558e-06
0.00151514
0.00225041
6.11935e-06
0.00151127
0.00220707
1.12472e-05
0.00150807
0.0021865
1.01591e-05
0.00150501
0.00218405
8.11573e-06
0.00150179
0.0021928
4.85395e-06
0.0014985
0.00220526
3.9765e-06
0.00149518
0.00221769
3.98496e-06
0.00149186
0.00222602
4.5675e-06
0.0014886
0.00222835
4.59055e-06
0.00148538
0.00222502
4.49643e-06
0.00148223
0.00221559
4.57193e-06
0.00147921
0.0022029
4.83288e-06
0.00147628
0.00218587
5.24379e-06
0.00147351
0.00216833
5.67255e-06
0.00147079
0.00214764
5.95184e-06
0.00146819
0.00212809
5.98774e-06
0.00146558
0.00210597
5.8611e-06
0.00146305
0.00208557
5.41258e-06
0.00146057
0.00206238
4.92101e-06
0.0014582
0.00204092
4.24686e-06
0.00145589
0.00201705
3.93074e-06
0.00145377
0.001995
3.63259e-06
0.00145171
0.00197098
3.56765e-06
0.00144995
0.00194921
3.61739e-06
0.00144826
0.0019263
3.82781e-06
0.00144699
0.00190445
3.77121e-06
0.00144572
0.00188483
3.97558e-06
0.00144496
0.0018623
3.56669e-06
0.00144402
0.00184657
3.8258e-06
0.0014437
0.00182285
2.6657e-06
0.00144295
0.00180995
3.40952e-06
0.00144243
0.00178616
2.82908e-06
0.00144065
0.00177516
3.66094e-06
0.00143564
0.00173934
7.35984e-06
0.00142314
0.00175322
1.45398e-05
0.00137199
0.00164223
5.34399e-05
0.00148839
0.000110125
0.00154732
0.00256454
-4.64008e-06
0.00155061
0.00249616
5.03698e-06
0.00155147
0.00243874
3.45506e-06
0.00155212
0.00236041
-2.70256e-06
0.00155236
0.00230404
-2.26791e-06
0.00155101
0.00228989
-8.34404e-06
0.00154797
0.00230234
-6.82609e-06
0.00154434
0.00234188
5.37237e-06
0.00153974
0.00238385
1.58429e-05
0.00153473
0.00240393
1.04877e-05
0.00152936
0.00239586
5.93543e-06
0.00152403
0.0023572
4.37462e-06
0.00151909
0.00230636
-8.80689e-08
0.00151515
0.00225563
-1.27042e-06
0.00151133
0.00221338
-2.47467e-06
0.0015081
0.00218752
2.20729e-06
0.00150503
0.00218233
4.8151e-06
0.00150179
0.00219076
5.27514e-06
0.00149849
0.00220416
4.40501e-06
0.00149518
0.00221792
3.0932e-06
0.00149187
0.00222704
2.30734e-06
0.00148862
0.00222968
1.93502e-06
0.0014854
0.00222658
1.67228e-06
0.00148225
0.00221722
1.53886e-06
0.00147923
0.00220453
1.42933e-06
0.0014763
0.00218742
1.45055e-06
0.00147353
0.00216964
1.57103e-06
0.00147082
0.00214869
1.83996e-06
0.00146821
0.00212873
2.17869e-06
0.0014656
0.0021064
2.47896e-06
0.00146308
0.00208581
2.60074e-06
0.00146059
0.00206255
2.76516e-06
0.00145822
0.00204127
2.42067e-06
0.00145592
0.00201766
2.25421e-06
0.0014538
0.00199597
1.67481e-06
0.00145175
0.00197229
1.32464e-06
0.00144999
0.00195069
8.39585e-07
0.0014483
0.00192777
8.10113e-07
0.00144702
0.00190577
4.58805e-07
0.00144574
0.00188578
7.86036e-07
0.00144497
0.00186312
3.78174e-07
0.00144404
0.00184685
1.12729e-06
0.00144373
0.0018233
2.51388e-07
0.00144297
0.00181029
7.93829e-07
0.00144246
0.00178621
9.20381e-07
0.0014407
0.00177606
1.18084e-06
0.0014357
0.00173973
4.96623e-06
0.00142318
0.00175382
1.23034e-05
0.001372
0.00164266
5.1355e-05
0.00148816
0.000108997
0.00154736
-6.02301e-06
0.00155076
-1.02539e-05
0.00155146
1.71482e-05
0.00155209
7.16933e-06
0.00155227
9.96302e-06
0.00155091
1.12526e-05
0.00154791
-2.44573e-06
0.0015443
-3.83207e-06
0.00153976
-7.26552e-07
0.00153477
4.71306e-06
0.00152943
4.56048e-06
0.00152409
4.0098e-06
0.00151907
1.16774e-05
0.0015151
1.06336e-05
0.00151128
7.68373e-06
0.00150808
4.69286e-06
0.00150501
5.13061e-06
0.00150179
5.67492e-06
0.0014985
6.00799e-06
0.00149518
6.90816e-06
0.00149186
7.58017e-06
0.0014886
7.68348e-06
0.00148538
7.27496e-06
0.00148224
6.43275e-06
0.00147922
5.8357e-06
0.00147629
5.35034e-06
0.00147351
5.2877e-06
0.00147079
5.31327e-06
0.00146817
5.46096e-06
0.00146557
5.56106e-06
0.00146305
5.66245e-06
0.00146056
6.02308e-06
0.00145818
6.10012e-06
0.00145587
6.2536e-06
0.00145375
5.95031e-06
0.0014517
5.50495e-06
0.00144994
4.87008e-06
0.00144825
4.33004e-06
0.00144698
3.67164e-06
0.00144568
3.494e-06
0.00144491
3.06566e-06
0.00144399
3.38016e-06
0.00144368
3.13998e-06
0.00144291
3.10632e-06
0.00144237
3.63747e-06
0.00144061
4.35055e-06
0.00143565
7.3663e-06
0.00142314
1.51434e-05
0.00137192
5.37293e-05
0.000110936
0.00464304
0.00609395
-2.06649e-05
0.00466644
0.00618243
-9.11499e-05
0.00467732
0.00629371
-0.000204941
0.00467777
0.00635938
-0.000190442
0.00467377
0.0063991
-0.000163555
0.00466795
0.0063855
-7.38371e-05
0.00465881
0.00631793
-2.63409e-05
0.00464254
0.00620519
4.4055e-06
0.00462543
0.00607353
3.30223e-05
0.00461434
0.00598579
3.01922e-05
0.00460697
0.0059213
3.89711e-05
0.00459746
0.00593912
2.35063e-05
0.00458587
0.00600416
-2.0781e-05
0.00457704
0.00607639
-4.89488e-05
0.00456562
0.0061103
-6.31136e-05
0.00455406
0.00611848
-5.41372e-05
0.00454241
0.00610207
-3.42794e-05
0.00453114
0.00606921
-8.41772e-06
0.00452053
0.00603349
-7.55166e-06
0.00451034
0.00598646
-1.53111e-05
0.00450035
0.00592678
-1.92371e-05
0.00449148
0.00586308
-1.78914e-05
0.0044839
0.00580151
-1.54456e-05
0.0044776
0.00574451
-1.54599e-05
0.00447226
0.0056909
-1.91642e-05
0.00446776
0.0056375
-2.43891e-05
0.00446386
0.00558381
-2.98325e-05
0.00446031
0.00552556
-3.20133e-05
0.00445715
0.00546601
-3.05738e-05
0.00445445
0.00540449
-2.88757e-05
0.00445218
0.00534429
-2.69081e-05
0.00445001
0.00528167
-2.5358e-05
0.00444815
0.00521982
-2.34262e-05
0.0044465
0.00515662
-2.06658e-05
0.00444546
0.00509558
-1.90118e-05
0.00444472
0.00503444
-1.80822e-05
0.00444461
0.00497761
-1.98729e-05
0.00444452
0.00491994
-2.20263e-05
0.00444537
0.00486614
-2.709e-05
0.00444574
0.00481265
-2.96259e-05
0.00444741
0.004757
-3.29551e-05
0.00444828
0.0047104
-3.31987e-05
0.00445053
0.00465069
-3.32437e-05
0.00445193
0.00461154
-2.90317e-05
0.00445316
0.00455193
-2.92364e-05
0.00445311
0.00451752
-2.12198e-05
0.00444341
0.00443787
-1.00053e-05
0.00441787
0.00440243
1.5779e-05
0.00430581
0.00423064
0.00014047
0.00390331
0.000354973
0.00464868
0.00610308
-1.96572e-05
0.00466418
0.00614381
2.29551e-05
0.0046731
0.00625909
2.18656e-05
0.0046745
0.00635636
4.98559e-06
0.00466957
0.00643364
-2.60252e-05
0.00466068
0.00642973
-3.30059e-05
0.00465715
0.00636956
-4.39649e-05
0.00464999
0.00626452
-5.41447e-05
0.00463312
0.00614805
-6.22829e-05
0.00461787
0.00603906
-2.8426e-05
0.00460704
0.00595811
-1.11569e-05
0.0045974
0.00591388
5.29264e-05
0.00458424
0.00595389
7.62031e-05
0.00457312
0.00604371
4.97855e-05
0.00456366
0.00611411
9.59895e-06
0.00455452
0.00615357
-2.51341e-05
0.00454396
0.00615052
-3.85906e-05
0.00453252
0.00610805
-2.66071e-05
0.00452129
0.00605584
-8.20889e-06
0.00451105
0.00600061
1.69946e-07
0.00450141
0.0059421
-1.607e-06
0.00449277
0.00587938
-4.18406e-06
0.00448513
0.00581444
-2.07683e-06
0.0044788
0.0057527
1.54561e-06
0.0044735
0.00569496
5.02485e-06
0.00446909
0.00564136
4.22681e-06
0.0044654
0.00559026
7.23157e-07
0.00446224
0.00553829
-6.85063e-06
0.00445936
0.00548382
-1.27661e-05
0.00445675
0.0054242
-1.53172e-05
0.00445451
0.00536404
-1.58539e-05
0.00445247
0.00530041
-1.49763e-05
0.00445062
0.00523702
-1.38339e-05
0.00444887
0.00517139
-1.12104e-05
0.0044476
0.00510704
-8.18784e-06
0.00444666
0.00504232
-4.71644e-06
0.0044465
0.00498218
-1.97282e-06
0.00444648
0.00492326
-8.48654e-07
0.00444754
0.00486877
-1.52304e-06
0.00444819
0.0048186
-4.71274e-06
0.00445009
0.00476465
-8.37912e-06
0.00445121
0.00472226
-1.21364e-05
0.00445338
0.00466562
-1.70681e-05
0.00445505
0.00462629
-1.59521e-05
0.00445606
0.00456851
-1.7785e-05
0.00445583
0.00453212
-1.27551e-05
0.00444602
0.00444985
2.63381e-06
0.00442048
0.00441538
2.48666e-05
0.00430871
0.00424023
0.000153723
0.00391582
0.000364918
0.00464939
0.00610977
-2.19246e-05
0.00466408
0.00613982
-7.26601e-06
0.00467391
0.00621571
3.27209e-05
0.00468143
0.00634064
1.82067e-05
0.00467599
0.00641411
3.23058e-05
0.00466408
0.00641039
3.86476e-05
0.00464848
0.0063021
0.000102634
0.00464291
0.00618965
9.71927e-05
0.00463203
0.00609245
6.68413e-05
0.00461724
0.00604251
-9.29022e-07
0.00460641
0.00599666
-3.59512e-05
0.00459702
0.00595887
-3.72662e-05
0.00458799
0.00597198
-2.35735e-06
0.00457684
0.00600884
5.21499e-05
0.00456356
0.00606349
7.51827e-05
0.00455291
0.00611196
6.23942e-05
0.00454246
0.00612379
4.52674e-05
0.00453155
0.00609953
2.4296e-05
0.0045205
0.00604581
2.50463e-05
0.00451028
0.00598593
2.88732e-05
0.00450065
0.00592593
3.04017e-05
0.00449198
0.00586833
2.4306e-05
0.00448413
0.00580752
1.92359e-05
0.00447748
0.00574557
1.8316e-05
0.00447198
0.00568463
2.06818e-05
0.00446744
0.00562598
2.51166e-05
0.00446362
0.00557056
2.92042e-05
0.00446044
0.00551675
3.06224e-05
0.00445755
0.00546387
2.88479e-05
0.00445478
0.00540669
2.6098e-05
0.00445241
0.0053494
2.24266e-05
0.00445041
0.00528962
1.76865e-05
0.00444877
0.00522984
1.30013e-05
0.00444719
0.00516732
9.49801e-06
0.00444593
0.00510419
7.72443e-06
0.00444475
0.00503919
7.79499e-06
0.00444428
0.0049765
9.76161e-06
0.00444396
0.00491464
1.26979e-05
0.00444483
0.00485666
1.50295e-05
0.00444542
0.00480409
1.7878e-05
0.0044474
0.00475021
1.59832e-05
0.00444873
0.00470667
1.80508e-05
0.004451
0.00465438
1.16022e-05
0.00445274
0.00461496
1.29858e-05
0.00445379
0.00455919
1.10907e-05
0.00445363
0.00452466
1.12541e-05
0.00444353
0.00444096
2.63436e-05
0.00441777
0.00440769
4.79892e-05
0.00430535
0.004232
0.000174124
0.00390651
0.000389968
0.00465062
0.00610618
-1.64199e-05
0.00466319
0.00614446
-1.21789e-05
0.0046652
0.00621
7.13953e-06
0.004674
0.00634556
-1.64323e-05
0.00467497
0.00644469
-3.38176e-05
0.00466853
0.00651274
-0.000104249
0.00465655
0.00643782
-0.00013053
0.00464194
0.00628804
-7.83243e-05
0.00463357
0.00613556
-1.9026e-05
0.00462021
0.00605038
1.60419e-05
0.00460567
0.00601387
3.48614e-06
0.00459418
0.00600266
-2.78908e-05
0.00458275
0.00603501
-5.17546e-05
0.0045762
0.00607185
-5.77626e-05
0.00456549
0.00610412
-3.23833e-05
0.00455463
0.00614077
-1.58023e-05
0.00454385
0.00615301
-1.36595e-05
0.00453236
0.00613811
-2.17908e-05
0.00452078
0.00609149
-2.97168e-05
0.00451035
0.00603086
-3.14471e-05
0.00450107
0.00596673
-2.91817e-05
0.00449301
0.00590636
-2.80091e-05
0.00448564
0.00584659
-3.00681e-05
0.00447911
0.00578556
-3.19911e-05
0.00447353
0.00572465
-3.29998e-05
0.00446889
0.00566369
-3.16984e-05
0.00446506
0.00560465
-2.86803e-05
0.00446195
0.00554649
-2.48837e-05
0.00445931
0.00549086
-2.21971e-05
0.00445673
0.00543236
-2.07247e-05
0.00445431
0.00537426
-1.99006e-05
0.00445217
0.00531374
-1.93134e-05
0.00445051
0.00525488
-2.11771e-05
0.00444916
0.00519384
-2.31161e-05
0.00444824
0.00513337
-2.67449e-05
0.00444733
0.00507013
-2.89342e-05
0.00444697
0.00500863
-3.10655e-05
0.00444659
0.00494562
-3.00089e-05
0.00444728
0.00488597
-2.96746e-05
0.0044477
0.00482927
-2.49293e-05
0.00444949
0.00477366
-2.50072e-05
0.00445088
0.00472628
-2.00125e-05
0.00445329
0.0046732
-2.11048e-05
0.00445498
0.00463518
-2.12515e-05
0.00445629
0.00457774
-1.90612e-05
0.00445647
0.00454697
-2.1446e-05
0.00444622
0.00446338
-7.31151e-06
0.00442052
0.00443061
1.49428e-05
0.00430869
0.0042539
0.000141222
0.00392798
0.000357463
0.00465023
1.8707e-06
0.00467377
-1.89772e-05
0.00467408
0.000107039
0.00467219
0.00016431
0.00467135
0.000204326
0.00466456
0.00021925
0.00465277
0.000165639
0.00463975
0.00010661
0.00462841
6.82694e-05
0.00462185
6.97415e-05
0.00461098
8.62296e-05
0.00459869
6.7468e-05
0.00458487
8.2402e-05
0.00457414
7.30606e-05
0.00456316
8.58672e-05
0.00455283
0.000100851
0.00454278
0.000109999
0.00453237
0.000104337
0.0045213
9.23971e-05
0.00451037
8.60718e-05
0.0045003
8.51659e-05
0.00449187
8.49112e-05
0.00448461
8.20233e-05
0.00447833
7.5081e-05
0.00447283
6.91689e-05
0.00446813
6.3932e-05
0.00446402
6.25182e-05
0.00446057
6.32672e-05
0.00445778
6.51283e-05
0.00445537
6.56078e-05
0.00445315
6.56049e-05
0.004451
6.64357e-05
0.00444915
6.69515e-05
0.00444759
6.63865e-05
0.00444664
6.41364e-05
0.00444582
6.00873e-05
0.00444555
5.54553e-05
0.00444525
5.11779e-05
0.00444589
4.73694e-05
0.00444616
4.69481e-05
0.0044477
4.65558e-05
0.00444888
4.76158e-05
0.00445135
5.09889e-05
0.00445288
5.00541e-05
0.00445424
5.32324e-05
0.00445451
5.39241e-05
0.00444463
6.41691e-05
0.00441874
8.84189e-05
0.00430577
0.000210396
0.000427927
0.00772577
0.0099117
0.000130541
0.000114722
-0.000165491
-8.37545e-05
0.00773897
0.0101527
2.93797e-05
-3.64873e-05
-6.3895e-05
-0.000136862
0.0077701
0.0102678
-0.000107695
-0.000126573
-0.000163483
-0.00022377
0.00778219
0.0101867
-0.00011619
-0.000126281
-0.000221378
-0.000233409
0.00778025
0.0100561
-9.54051e-05
-8.10701e-05
-0.000238638
-0.00022067
0.00778726
0.00992339
-2.24338e-05
1.0057e-06
-0.000217027
-0.0001743
0.0077725
0.00991625
5.65117e-05
8.73231e-05
-0.000158049
-0.000129087
0.0077572
0.0100509
0.000116678
0.00012948
-0.000126985
-0.000120543
0.00772985
0.0102023
0.000138409
0.000145853
-0.000130704
-0.000136029
0.00770209
0.0102103
0.000160104
0.000161092
-0.000128739
-0.000121294
0.00767519
0.0101742
0.000177721
0.000179095
-0.000104188
-9.43939e-05
0.00765985
0.0101907
0.000171423
0.000155385
-8.60732e-05
-8.98244e-05
0.00764758
0.0101484
0.000131254
0.000117298
-0.000102626
-0.000113692
0.00762765
0.010068
9.09301e-05
7.39181e-05
-0.00012796
-0.000150129
0.00760335
0.00989537
6.17446e-05
4.90849e-05
-0.000155196
-0.000170038
0.00759321
0.0096734
5.41848e-05
4.87741e-05
-0.000160689
-0.000161221
0.00759177
0.00947425
5.81723e-05
5.38501e-05
-0.000150059
-0.000151653
0.00759373
0.00928906
7.10927e-05
6.81343e-05
-0.000130765
-0.000118673
0.0075986
0.00915413
7.0272e-05
6.5454e-05
-0.000115151
-0.000112304
0.00760425
0.00903987
6.68427e-05
6.21657e-05
-0.000113619
-0.000113704
0.00760847
0.00892597
6.40911e-05
5.87418e-05
-0.000114054
-0.000115252
0.0076129
0.00880731
6.27219e-05
5.81085e-05
-0.000113526
-0.000112994
0.00761905
0.0086864
6.30352e-05
5.90776e-05
-0.000110292
-0.000108202
0.00762736
0.00857509
6.3149e-05
5.8643e-05
-0.000106149
-0.000104426
0.0076368
0.00846986
6.11418e-05
5.62359e-05
-0.000104446
-0.000104095
0.00764624
0.00837129
5.73731e-05
5.19599e-05
-0.000105275
-0.000106385
0.00765511
0.00826955
5.26636e-05
4.7095e-05
-0.000107878
-0.000110066
0.0076627
0.00816459
4.89187e-05
4.3533e-05
-0.000110017
-0.00011201
0.00766951
0.00805236
4.68748e-05
4.26141e-05
-0.000110412
-0.000110782
0.00767696
0.00794078
4.59633e-05
4.15607e-05
-0.000108272
-0.000108219
0.00768569
0.00782946
4.56299e-05
4.12793e-05
-0.000105404
-0.000105118
0.00769481
0.00772095
4.55429e-05
4.14986e-05
-0.000102356
-0.000101542
0.00770331
0.00761452
4.6532e-05
4.3247e-05
-9.89981e-05
-9.75198e-05
0.00771116
0.00751227
4.81913e-05
4.49598e-05
-9.48658e-05
-9.27644e-05
0.00771857
0.00741506
4.96483e-05
4.66643e-05
-9.09158e-05
-8.87283e-05
0.00772632
0.00732446
5.04017e-05
4.64391e-05
-8.71956e-05
-8.55578e-05
0.00773433
0.00724072
4.91228e-05
4.52137e-05
-8.569e-05
-8.4916e-05
0.00774219
0.0071607
4.71314e-05
4.20833e-05
-8.50894e-05
-8.53083e-05
0.00774998
0.00708225
4.3267e-05
3.8641e-05
-8.6916e-05
-8.79557e-05
0.00775698
0.00700517
4.01887e-05
3.51105e-05
-8.85071e-05
-8.96603e-05
0.00776352
0.00692134
3.737e-05
3.33359e-05
-9.02317e-05
-9.1155e-05
0.00776949
0.00684655
3.57846e-05
3.10465e-05
-9.05187e-05
-9.13137e-05
0.00777491
0.00675744
3.48944e-05
3.20664e-05
-9.04381e-05
-8.99946e-05
0.00778163
0.00668561
3.63814e-05
3.22641e-05
-8.75156e-05
-8.72868e-05
0.00778548
0.00660252
3.57038e-05
3.35976e-05
-8.55879e-05
-8.51912e-05
0.00779236
0.00653204
3.89476e-05
3.4849e-05
-8.14215e-05
-8.05859e-05
0.00779124
0.00645
4.03022e-05
3.94057e-05
-7.59685e-05
-7.56724e-05
0.00778279
0.00635447
5.06437e-05
4.94603e-05
-6.62451e-05
-6.24299e-05
0.0077172
0.0062094
8.48743e-05
0.000101488
-3.2576e-05
-4.31184e-06
0.00584898
0.000154188
0.000214797
3.41861e-05
0.000103721
0.0077506
0.00989149
-2.46612e-05
0.0077413
0.00989775
0.000287196
0.00777594
0.00986446
0.00039056
0.00778255
0.00985492
0.000330138
0.00777847
0.00982183
0.000212372
0.00776158
0.00981199
9.52938e-05
0.00775841
0.00981532
6.01793e-05
0.00775327
0.00993451
6.75049e-05
0.00773888
0.010151
3.26314e-06
0.00770895
0.0102878
-7.5727e-05
0.00767447
0.0102618
-6.4213e-05
0.0076445
0.0101283
0.000145457
0.00763136
0.00998585
0.000251777
0.00763047
0.00986681
0.000251966
0.00761527
0.00977693
0.000143262
0.00760126
0.0096107
5.15505e-05
0.00759071
0.00944285
3.35042e-06
0.00758884
0.00925927
5.05454e-06
0.00759281
0.00909404
4.78906e-05
0.00760148
0.00895992
7.14424e-05
0.00760997
0.00884712
6.87764e-05
0.00761718
0.00874178
5.41232e-05
0.00762332
0.00862905
4.91387e-05
0.00763013
0.00851366
5.61098e-05
0.00763821
0.00839786
6.89655e-05
0.00764707
0.00829133
7.52732e-05
0.00765654
0.00818883
7.20122e-05
0.00766579
0.00809289
5.55492e-05
0.00767353
0.00799391
3.79937e-05
0.00768068
0.00789022
2.80654e-05
0.00768834
0.00778432
2.16612e-05
0.0076971
0.00767855
1.86369e-05
0.00770579
0.00757389
1.80982e-05
0.00771407
0.00747092
2.1797e-05
0.00772157
0.00736976
2.9623e-05
0.00772852
0.00727182
4.09178e-05
0.00773613
0.00717912
5.20433e-05
0.00774359
0.00709338
5.89683e-05
0.00775162
0.00701165
6.10985e-05
0.00775937
0.00693914
5.35821e-05
0.00776665
0.00686022
4.5452e-05
0.00777372
0.00679392
3.3425e-05
0.00777909
0.0067139
2.1098e-05
0.00778603
0.00664449
1.82534e-05
0.00778927
0.00656508
1.64151e-05
0.00779549
0.006492
2.1092e-05
0.00779278
0.00640635
4.8995e-05
0.00778461
0.00631104
7.6518e-05
0.00771754
0.00616388
0.000266287
0.00581889
0.000631474
0.00774683
0.00990717
-5.90721e-05
0.00772684
0.00984849
6.19832e-05
0.007748
0.00972105
0.000154969
0.00778431
0.00968231
0.000154507
0.00780088
0.00973719
0.000100377
0.00777676
0.00984357
3.11869e-05
0.00774847
0.00990168
4.46247e-05
0.00773333
0.00997763
6.92951e-05
0.00772322
0.010122
0.000106019
0.0077242
0.0103425
-5.665e-05
0.00770003
0.0103677
-0.000117282
0.00766446
0.0102679
-0.000141319
0.00763262
0.0100631
-4.77828e-05
0.00761675
0.00984223
9.2617e-05
0.00760818
0.00969441
0.000166313
0.00760141
0.00955346
0.000126372
0.00759395
0.00941233
8.32182e-05
0.00758813
0.00927285
1.65328e-05
0.00758654
0.00911447
6.19036e-06
0.0075917
0.0089758
7.81374e-06
0.00760031
0.00884811
2.08221e-05
0.00760906
0.00873898
1.83627e-05
0.00761579
0.00863052
1.09924e-05
0.00762197
0.00851802
7.73297e-06
0.00762899
0.00839943
1.20805e-05
0.00763734
0.00828206
2.59923e-05
0.0076467
0.0081676
4.10751e-05
0.0076569
0.00806096
5.2321e-05
0.00766592
0.00796047
5.32557e-05
0.00767358
0.00786235
4.62849e-05
0.00768066
0.00776426
3.54056e-05
0.00768862
0.00766776
2.04998e-05
0.00769722
0.00757051
7.68991e-06
0.00770608
0.0074738
-2.34189e-06
0.00771425
0.00737642
-7.17933e-06
0.00772136
0.00727862
-6.20525e-06
0.00772802
0.00718144
7.41692e-07
0.00773478
0.00708706
1.21838e-05
0.0077418
0.00699641
2.32341e-05
0.00774955
0.00691493
3.43567e-05
0.00775706
0.00683386
3.47973e-05
0.00776507
0.00676253
4.14004e-05
0.00777158
0.00669021
2.87333e-05
0.00777884
0.00662181
2.83681e-05
0.00778285
0.00654956
2.25653e-05
0.00778903
0.00648095
1.60814e-05
0.00778552
0.0063959
4.02673e-05
0.00777702
0.00630524
6.223e-05
0.00771119
0.00615744
0.000246363
0.00580644
0.000634169
0.00774627
0.00989063
-2.07609e-05
0.0077192
0.00983935
2.40293e-05
0.0077336
0.00956697
0.000146816
0.00775517
0.00943519
0.0002091
0.00778602
0.0094568
0.00021573
0.00780707
0.00965315
6.51317e-05
0.00778009
0.00991474
-0.000116601
0.00775203
0.0100861
-0.000158528
0.00771977
0.010168
-3.30278e-05
0.0076959
0.0103049
7.78444e-05
0.00768072
0.0103654
2.08779e-05
0.00766773
0.0103379
-8.49339e-05
0.00763684
0.0101505
-0.000108393
0.00761945
0.00987939
-7.74487e-05
0.00760673
0.00965293
2.1822e-05
0.00759994
0.00947353
7.08799e-05
0.00759676
0.00933258
6.92658e-05
0.00759547
0.00921841
3.39466e-05
0.00759587
0.00909168
-7.35502e-06
0.00759923
0.00896393
-2.29627e-05
0.0076071
0.00883308
-2.1971e-05
0.00761728
0.00871435
-1.35706e-05
0.00762604
0.00860645
-1.4743e-05
0.00763278
0.00850146
-2.22476e-05
0.0076383
0.00839146
-3.0497e-05
0.00764456
0.00827654
-3.25316e-05
0.00765198
0.00815814
-2.657e-05
0.00766113
0.00804171
-1.48885e-05
0.00767132
0.00793132
-3.16697e-06
0.00768115
0.00782749
4.22683e-06
0.00768944
0.00772675
9.36869e-06
0.0076972
0.00762898
1.16567e-05
0.0077048
0.00753558
6.13582e-06
0.00771326
0.00744371
-1.60114e-06
0.00772188
0.00735603
-1.49468e-05
0.00773003
0.00726605
-2.46364e-05
0.00773725
0.00717717
-3.39754e-05
0.00774381
0.00708409
-3.36911e-05
0.00775003
0.00699244
-3.1842e-05
0.0077564
0.00690282
-1.92305e-05
0.00776296
0.006817
-1.47388e-05
0.00777045
0.00673703
-2.01279e-06
0.00777698
0.00666057
1.98475e-06
0.00778498
0.00659327
-7.13506e-07
0.00778976
0.00652014
5.57591e-06
0.00779678
0.00645747
-4.99146e-06
0.00779382
0.00637273
1.88026e-05
0.00778507
0.00628765
4.13474e-05
0.00771942
0.00613928
0.000224986
0.00578886
0.000607596
0.00774905
-5.98036e-05
0.0077503
-0.000230064
0.00773798
-0.000196012
0.00775401
-0.000108511
0.00776462
6.8551e-05
0.00777661
0.000268934
0.00777919
0.00029336
0.00776223
0.000179999
0.00774112
9.75448e-05
0.00770946
0.000182899
0.00768102
0.000213683
0.00766664
0.000117005
0.00763799
7.21917e-05
0.0076142
-7.51405e-06
0.00759738
3.58204e-05
0.00759224
8.09725e-05
0.00758844
0.000128934
0.00758751
0.000134449
0.00758863
0.000108077
0.00758984
8.62549e-05
0.00759332
7.19041e-05
0.00760111
6.75118e-05
0.00761152
6.64156e-05
0.00762204
5.57923e-05
0.00763075
4.46899e-05
0.00763788
3.03794e-05
0.00764407
2.44922e-05
0.00765064
2.36274e-05
0.00765842
3.06854e-05
0.00766794
3.52896e-05
0.00767745
4.14015e-05
0.00768629
4.78932e-05
0.00769413
5.48376e-05
0.00770195
5.5702e-05
0.0077102
5.36767e-05
0.00771877
4.29169e-05
0.00772698
3.2061e-05
0.00773462
1.79985e-05
0.00774148
8.8125e-06
0.00774788
4.39938e-06
0.00775367
7.4979e-06
0.00776034
7.17251e-06
0.00776625
2.29145e-05
0.00777394
2.03442e-05
0.007779
3.41171e-05
0.00778657
3.18301e-05
0.00778513
5.13345e-05
0.00777607
8.34201e-05
0.00771002
0.000262803
0.00068027
0.00256928
0.00337825
0.000203148
-0.00259315
0.0026295
0.00363457
-4.99386e-05
-0.0026423
0.00264472
0.00373835
-0.000224852
-0.00262444
0.00262452
0.00379803
-0.000235021
-0.00261083
0.00260149
0.00383764
-0.000182134
-0.00258956
0.00257525
0.00381008
-5.28879e-05
-0.00257095
0.00256359
0.00376272
6.93258e-05
-0.00256093
0.00255839
0.00369451
0.000131484
-0.0025578
0.00255
0.00358825
0.000161099
-0.00254769
0.00253651
0.00346575
0.000190737
-0.00253597
0.0025342
0.0033514
0.000212243
-0.00253875
0.00254205
0.00327772
0.000191689
-0.00254949
0.0025526
0.00322054
0.000128018
-0.00255905
0.00256196
0.00316145
7.0856e-05
-0.00256839
0.00256778
0.00310065
2.99947e-05
-0.00257212
0.00257381
0.00303903
1.82568e-05
-0.00257929
0.00258176
0.0029795
1.53036e-05
-0.00258829
0.00258849
0.0029228
3.58525e-05
-0.00259132
0.00259264
0.00286913
3.65441e-05
-0.00259638
0.00259704
0.00282463
3.49913e-05
-0.00260046
0.00260025
0.00278181
3.3902e-05
-0.0026029
0.00260172
0.00273895
3.46212e-05
-0.00260359
0.00260235
0.00269711
3.5877e-05
-0.00260426
0.00260364
0.00265704
3.59356e-05
-0.00260617
0.00260641
0.00261866
3.22519e-05
-0.00260947
0.00260985
0.0025811
2.72078e-05
-0.00261292
0.00261316
0.00254384
2.0539e-05
-0.00261599
0.00261563
0.00250613
1.63932e-05
-0.00261799
0.00261735
0.00246889
1.35965e-05
-0.00261921
0.00261841
0.00243279
1.24088e-05
-0.0026203
0.00261985
0.00239789
1.1362e-05
-0.00262199
0.00262152
0.00236398
1.21833e-05
-0.00262373
0.00262338
0.00233129
1.43425e-05
-0.00262545
0.00262485
0.00230013
1.83459e-05
-0.00262676
0.00262628
0.00227084
2.11583e-05
-0.00262809
0.00262748
0.00224309
2.32863e-05
-0.00262932
0.00262887
0.00221673
2.17374e-05
-0.00263068
0.0026302
0.00219094
1.95262e-05
-0.00263218
0.00263169
0.00216558
1.44017e-05
-0.0026335
0.00263293
0.00213996
1.08195e-05
-0.00263486
0.00263437
0.00211442
6.91356e-06
-0.00263605
0.00263514
0.00208896
5.62399e-06
-0.00263675
0.00263634
0.00206387
4.33144e-06
-0.00263795
0.0026367
0.00203929
6.52267e-06
-0.00263798
0.00263801
0.00201568
6.20524e-06
-0.00263983
0.00263836
0.00199328
9.02716e-06
-0.00263926
0.00263988
0.00196992
1.06096e-05
-0.00264307
0.00264174
0.0019458
2.01463e-05
-0.00264182
0.00264599
0.00191096
4.98518e-05
-0.00265533
0.00265218
0.0018629
0.000117187
0.010985
0.013859
-0.000162446
-0.00330611
-0.00331497
-0.00363687
-0.00363271
0.0110004
0.0140073
0.000404138
-0.00347062
-0.00354669
-0.00354974
-0.00357252
0.0109943
0.014396
0.000529529
-0.00363848
-0.00369522
-0.00359001
-0.00360517
0.0109363
0.0146236
0.000491083
-0.00371696
-0.00374901
-0.00361725
-0.00364332
0.0108651
0.0148356
0.000365483
-0.00376701
-0.00377946
-0.00369161
-0.00367946
0.0108186
0.0148205
0.000224906
-0.00375751
-0.00374804
-0.00370767
-0.0036903
0.0107721
0.0145797
0.000176444
-0.0037039
-0.00367879
-0.00364666
-0.00362004
0.0107449
0.0142027
0.000143738
-0.00361222
-0.00357805
-0.0035484
-0.00351302
0.0107307
0.0137833
-6.44164e-06
-0.00348789
-0.00345208
-0.00343041
-0.00338911
0.0107029
0.0131701
4.61092e-06
-0.00335231
-0.00330786
-0.00330046
-0.00326209
0.0106941
0.0127965
-9.02225e-05
-0.00322944
-0.00319011
-0.00318802
-0.00315368
0.0106911
0.0123812
0.000247738
-0.00314778
-0.0031318
-0.00310724
-0.00309346
0.0107359
0.0120968
0.000341911
-0.00308888
-0.00307628
-0.0030404
-0.00302629
0.010782
0.0119007
0.000325417
-0.00303878
-0.00302879
-0.00298323
-0.00296943
0.0108195
0.0117304
0.000194124
-0.0029917
-0.00297552
-0.00293378
-0.00291776
0.0108398
0.0115557
9.85327e-05
-0.00294028
-0.00292426
-0.00288535
-0.00287314
0.0108609
0.0114122
1.12306e-05
-0.00289103
-0.00287093
-0.00284757