/*--------------------------------*- C++ -*----------------------------------*\
| =========                 |                                                 |
| \\      /  F ield         | OpenFOAM: The Open Source CFD Toolbox           |
|  \\    /   O peration     | Version:  4.1                                   |
|   \\  /    A nd           | Web:      www.OpenFOAM.org                      |
|    \\/     M anipulation  |                                                 |
\*---------------------------------------------------------------------------*/
FoamFile
{
    version     2.0;
    format      ascii;
    class       volVectorField;
    location    "239";
    object      U;
}
// * * * * * * * * * * * * * * * * * * * * * * * * * * * * * * * * * * * * * //

dimensions      [0 1 -1 0 0 0 0];

internalField   nonuniform List<vector> 
1600
(
(1.00001 0.103572 0.078691)
(1.00243 0.101491 0.0765993)
(1.00457 0.0971346 0.0756565)
(1.00422 0.0933951 0.0750016)
(1.00479 0.0921996 0.0716397)
(1.00454 0.0936246 0.0677634)
(1.00322 0.0973384 0.0649304)
(1.00063 0.099975 0.0647123)
(0.998263 0.100754 0.0665338)
(0.994829 0.100442 0.0685421)
(0.99181 0.0991136 0.0699851)
(0.987923 0.0964142 0.0708715)
(0.984842 0.0931086 0.0706176)
(0.981557 0.0903479 0.0696598)
(0.979582 0.0890023 0.0680111)
(0.976759 0.0888565 0.0661146)
(0.975308 0.089591 0.064566)
(0.972817 0.0906385 0.0637779)
(0.971165 0.0916573 0.063592)
(0.968511 0.09234 0.063831)
(0.966914 0.0925756 0.0642395)
(0.964197 0.0924549 0.0645675)
(0.962695 0.0921158 0.0647512)
(0.960023 0.0915802 0.0647405)
(0.958652 0.090934 0.0646044)
(0.956088 0.0901426 0.0642753)
(0.954885 0.0893374 0.0638755)
(0.952467 0.0884123 0.0633299)
(0.951375 0.0875605 0.0627566)
(0.949069 0.086633 0.0620876)
(0.94801 0.085765 0.061483)
(0.945819 0.0847779 0.0608066)
(0.944737 0.0838817 0.0601671)
(0.942781 0.0828898 0.0594777)
(0.941718 0.0820125 0.0588194)
(0.940056 0.0810507 0.0581286)
(0.939067 0.0802032 0.0574833)
(0.937768 0.0792718 0.0568395)
(0.936938 0.0784121 0.0561697)
(0.936008 0.0775837 0.0556109)
(0.935476 0.0766761 0.0548995)
(0.934792 0.0759702 0.0544623)
(0.934535 0.0750127 0.0536957)
(0.934066 0.0744969 0.0533303)
(0.933805 0.0734617 0.0526095)
(0.93306 0.0729246 0.0524865)
(0.931618 0.0714077 0.05147)
(0.925647 0.0714981 0.0525393)
(0.917851 0.0640648 0.0532432)
(0.837712 0.05447 0.0531347)
(1.00002 0.122808 0.0424892)
(1.00241 0.120019 0.0424147)
(1.00459 0.116331 0.0422722)
(1.00422 0.112562 0.0427469)
(1.00477 0.110273 0.039804)
(1.00449 0.110274 0.0357081)
(1.00316 0.112964 0.0314158)
(1.00066 0.115917 0.0297608)
(0.998333 0.11688 0.0312526)
(0.99487 0.116198 0.0337641)
(0.991809 0.115146 0.0359558)
(0.987892 0.112878 0.0380508)
(0.984828 0.110214 0.0387954)
(0.981527 0.107589 0.0382)
(0.979551 0.105967 0.037077)
(0.976752 0.105349 0.0353831)
(0.975327 0.105591 0.0337162)
(0.972839 0.106212 0.0325937)
(0.971176 0.10702 0.0320881)
(0.968514 0.107714 0.0320896)
(0.966914 0.10809 0.0324099)
(0.964198 0.10809 0.0327795)
(0.962698 0.107807 0.0330813)
(0.960027 0.107266 0.0332463)
(0.958657 0.106591 0.0333304)
(0.956093 0.105742 0.0332743)
(0.954892 0.104873 0.0331548)
(0.952478 0.103861 0.0329176)
(0.951389 0.1029 0.0326322)
(0.949101 0.10182 0.0322782)
(0.948013 0.10081 0.0319501)
(0.94584 0.0996572 0.0315987)
(0.944765 0.0985956 0.0312524)
(0.94281 0.097423 0.030895)
(0.941746 0.0963618 0.0305391)
(0.940081 0.0952127 0.0301801)
(0.939089 0.0941876 0.0298463)
(0.93779 0.0930975 0.029534)
(0.936959 0.0920729 0.0291869)
(0.936045 0.0911251 0.0289238)
(0.935501 0.0900482 0.0285341)
(0.934804 0.089278 0.0283252)
(0.934566 0.0881189 0.0278966)
(0.9341 0.0875128 0.0277057)
(0.93385 0.0863392 0.0273114)
(0.933112 0.0857218 0.0273939)
(0.931648 0.0839997 0.0268753)
(0.925656 0.0844258 0.0278081)
(0.917886 0.0775508 0.030807)
(0.837765 0.0683861 0.0336306)
(1.00001 0.129706 0.00241252)
(1.00238 0.127032 0.00393381)
(1.00459 0.123707 0.00483372)
(1.00425 0.119652 0.0059129)
(1.00477 0.116656 0.00476841)
(1.00453 0.115434 0.000747574)
(1.00312 0.116274 -0.0031383)
(1.00056 0.118918 -0.00628789)
(0.99829 0.121381 -0.00592415)
(0.994863 0.121715 -0.00405457)
(0.991831 0.121026 -0.00159679)
(0.987915 0.119105 0.00120521)
(0.984847 0.116454 0.00302429)
(0.981574 0.113903 0.00364815)
(0.979558 0.111816 0.00288994)
(0.976723 0.110841 0.00156495)
(0.975297 0.110716 -3.05704e-05)
(0.972824 0.111089 -0.00138365)
(0.971172 0.111687 -0.00215835)
(0.968513 0.112298 -0.00245134)
(0.966915 0.11272 -0.002326)
(0.964196 0.112837 -0.00201516)
(0.962693 0.112665 -0.00164436)
(0.960019 0.11219 -0.00130502)
(0.958647 0.111552 -0.00100932)
(0.956083 0.110704 -0.000781948)
(0.95488 0.109828 -0.000606672)
(0.952465 0.108797 -0.000495211)
(0.951375 0.107814 -0.000445722)
(0.949083 0.106696 -0.000424125)
(0.947996 0.105656 -0.000431862)
(0.945824 0.104471 -0.000433606)
(0.94475 0.103372 -0.000469919)
(0.9428 0.102152 -0.000478382)
(0.941737 0.101026 -0.000514137)
(0.940071 0.0998078 -0.000517853)
(0.939074 0.0987056 -0.000528974)
(0.937772 0.0975551 -0.000483566)
(0.936935 0.0964558 -0.000492539)
(0.936019 0.0954739 -0.00042609)
(0.935479 0.0943363 -0.000455174)
(0.934776 0.0935496 -0.000394528)
(0.934541 0.0923351 -0.000449079)
(0.934072 0.0916893 -0.000411844)
(0.933821 0.0904807 -0.000421886)
(0.933103 0.0899038 -0.000217048)
(0.931629 0.0881105 -0.000116631)
(0.925613 0.0888015 0.000636578)
(0.917834 0.0831839 0.00559831)
(0.837719 0.0753707 0.0111028)
(1.00006 0.1241 -0.0378554)
(1.00239 0.121414 -0.0354003)
(1.0045 0.119354 -0.0328374)
(1.00419 0.115236 -0.0318149)
(1.00475 0.112195 -0.0322418)
(1.00456 0.110109 -0.0358561)
(1.00319 0.10922 -0.0397191)
(1.00061 0.110749 -0.0420602)
(0.998307 0.11298 -0.0429527)
(0.994875 0.114624 -0.0413421)
(0.991819 0.11486 -0.0390243)
(0.987884 0.113791 -0.0357784)
(0.9848 0.111888 -0.0331992)
(0.98156 0.109557 -0.0320635)
(0.979591 0.107236 -0.0320827)
(0.976752 0.105653 -0.0329958)
(0.975306 0.105001 -0.0343529)
(0.972827 0.105043 -0.0356463)
(0.97117 0.105441 -0.0365467)
(0.968509 0.105992 -0.0370466)
(0.966914 0.106449 -0.0371179)
(0.964203 0.106658 -0.0369073)
(0.962704 0.106607 -0.0365354)
(0.960031 0.106248 -0.0360705)
(0.958657 0.105722 -0.0355896)
(0.956092 0.104965 -0.0351038)
(0.954889 0.104168 -0.0346607)
(0.952475 0.103201 -0.0342247)
(0.951386 0.102269 -0.0338624)
(0.949094 0.101212 -0.0334755)
(0.948011 0.100232 -0.0331352)
(0.945836 0.0991265 -0.032748)
(0.94476 0.0980963 -0.0324371)
(0.942811 0.0969558 -0.0320696)
(0.941754 0.0958918 -0.0317683)
(0.940093 0.0947376 -0.0314048)
(0.939099 0.093681 -0.0310928)
(0.937797 0.0925839 -0.0306974)
(0.936958 0.0915185 -0.0303733)
(0.936034 0.0905825 -0.0300047)
(0.93548 0.0894878 -0.029674)
(0.934783 0.0887391 -0.0293535)
(0.934559 0.0875932 -0.0290328)
(0.934089 0.0869752 -0.0287963)
(0.933831 0.0858402 -0.0283862)
(0.933121 0.0853608 -0.0281118)
(0.931666 0.0836902 -0.0273756)
(0.925639 0.084587 -0.0268724)
(0.917849 0.0807635 -0.0204304)
(0.837732 0.0750649 -0.0127381)
(1.00001 0.106635 -0.0742512)
(1.0025 0.104257 -0.0716583)
(1.00455 0.103246 -0.0667729)
(1.00416 0.100714 -0.0638951)
(1.00471 0.0970038 -0.0640483)
(1.00448 0.0942464 -0.0668979)
(1.00314 0.0925962 -0.0712271)
(1.00058 0.0930427 -0.0740967)
(0.998289 0.0948565 -0.0752033)
(0.994896 0.0964045 -0.0745355)
(0.991863 0.0973568 -0.0725167)
(0.987931 0.0973438 -0.0690771)
(0.984817 0.0963409 -0.0655713)
(0.981526 0.0946519 -0.0635914)
(0.979556 0.092522 -0.0630368)
(0.976737 0.0906332 -0.0635283)
(0.975296 0.0894557 -0.0646922)
(0.972821 0.0890855 -0.065947)
(0.971173 0.0892218 -0.0668897)
(0.968512 0.0896323 -0.0674392)
(0.966909 0.0900692 -0.0675825)
(0.964192 0.0903427 -0.0674358)
(0.962693 0.0904163 -0.0671048)
(0.960023 0.0902188 -0.0666172)
(0.958651 0.0898622 -0.0660406)
(0.956086 0.0892743 -0.0653788)
(0.95488 0.0886328 -0.064722)
(0.952461 0.0878235 -0.0640133)
(0.951371 0.0870257 -0.0633886)
(0.949068 0.0861183 -0.0627085)
(0.947995 0.0852885 -0.0620783)
(0.94582 0.0843511 -0.0613487)
(0.944736 0.0834743 -0.0607149)
(0.942781 0.0825113 -0.0600054)
(0.94172 0.0816095 -0.0593951)
(0.94006 0.0806387 -0.0587102)
(0.939067 0.0797408 -0.0581087)
(0.937766 0.0788165 -0.0574201)
(0.93693 0.0778974 -0.0567973)
(0.936001 0.0770967 -0.0561744)
(0.93544 0.0761471 -0.0555204)
(0.934753 0.0755105 -0.0549834)
(0.934523 0.0745149 -0.0543137)
(0.934053 0.073993 -0.0539349)
(0.933785 0.0730316 -0.0531483)
(0.933058 0.0726876 -0.0527874)
(0.93162 0.0712925 -0.0515874)
(0.925626 0.0723589 -0.0513246)
(0.917809 0.070683 -0.0440595)
(0.837657 0.0676223 -0.0349911)
(0.999332 0.250078 0.178268)
(1.00362 0.256045 0.17746)
(1.00912 0.266401 0.169519)
(1.00942 0.266315 0.17079)
(1.00892 0.262679 0.176415)
(1.00771 0.255657 0.186581)
(1.00662 0.24654 0.194546)
(1.0035 0.240986 0.193296)
(0.999449 0.23579 0.19107)
(0.996489 0.234599 0.186339)
(0.994706 0.235865 0.180993)
(0.993061 0.242664 0.175215)
(0.99048 0.250113 0.171614)
(0.988254 0.251827 0.173063)
(0.986528 0.251759 0.173972)
(0.983494 0.250426 0.175439)
(0.98143 0.248025 0.177376)
(0.978502 0.245539 0.179265)
(0.976643 0.243578 0.179608)
(0.973859 0.241438 0.178699)
(0.972269 0.238918 0.177122)
(0.969526 0.23633 0.175537)
(0.968461 0.233852 0.174038)
(0.966223 0.231666 0.17242)
(0.965794 0.229643 0.170613)
(0.963863 0.227626 0.168685)
(0.963903 0.22552 0.166746)
(0.962136 0.223165 0.16481)
(0.962406 0.220696 0.163093)
(0.96074 0.218168 0.161384)
(0.961268 0.215713 0.159728)
(0.959734 0.213188 0.157963)
(0.960339 0.210668 0.156265)
(0.958928 0.208075 0.154592)
(0.959641 0.205561 0.152955)
(0.958466 0.203116 0.151223)
(0.959346 0.200833 0.149504)
(0.958386 0.19859 0.147629)
(0.959356 0.1965 0.145755)
(0.958666 0.194351 0.143964)
(0.959633 0.192209 0.142033)
(0.95924 0.190253 0.140617)
(0.960158 0.187873 0.138715)
(0.960059 0.18623 0.137768)
(0.96085 0.18386 0.135836)
(0.960505 0.182149 0.135561)
(0.960783 0.17846 0.13376)
(0.955502 0.176271 0.133785)
(0.952037 0.163859 0.136131)
(0.888189 0.142615 0.137148)
(1.00096 0.294347 0.0921679)
(1.00378 0.297004 0.0956588)
(1.00818 0.306132 0.0917269)
(1.00853 0.310861 0.0919509)
(1.00834 0.313942 0.0968246)
(1.00639 0.310693 0.104555)
(1.0048 0.304724 0.11205)
(1.00472 0.299586 0.11139)
(1.00142 0.294242 0.106075)
(0.997759 0.288236 0.105074)
(0.99499 0.284051 0.101332)
(0.992713 0.283654 0.0970123)
(0.990815 0.287758 0.0923893)
(0.987247 0.294807 0.0907109)
(0.985807 0.297676 0.0917909)
(0.983366 0.298619 0.093178)
(0.981732 0.297198 0.095236)
(0.978866 0.294 0.0972629)
(0.976844 0.290859 0.0989288)
(0.97398 0.287925 0.0993983)
(0.972449 0.284956 0.098616)
(0.969794 0.281862 0.0972767)
(0.96873 0.278796 0.0960353)
(0.966473 0.275947 0.0950207)
(0.966045 0.273353 0.0940967)
(0.964139 0.270895 0.0931313)
(0.964185 0.268504 0.0921159)
(0.962508 0.26595 0.09098)
(0.962853 0.263197 0.0898781)
(0.961233 0.260227 0.0888502)
(0.961752 0.257271 0.087863)
(0.960244 0.25417 0.0868818)
(0.960877 0.251114 0.0858961)
(0.959444 0.247936 0.0849767)
(0.960133 0.244876 0.0840882)
(0.958885 0.241804 0.0831934)
(0.959747 0.239012 0.0823372)
(0.95879 0.236242 0.0813831)
(0.959781 0.233747 0.0803874)
(0.959174 0.231329 0.0794286)
(0.960164 0.22879 0.0782655)
(0.95986 0.226693 0.0774572)
(0.960778 0.223965 0.0761895)
(0.960671 0.22195 0.0758047)
(0.961551 0.219224 0.074534)
(0.961064 0.217302 0.0746212)
(0.961367 0.212981 0.0742846)
(0.956034 0.210957 0.0748504)
(0.952597 0.199781 0.0809301)
(0.888923 0.179991 0.0885436)
(1.00092 0.309717 -0.00400326)
(1.00452 0.31001 -0.00333939)
(1.00727 0.314995 -0.00913685)
(1.00996 0.319202 -0.0107069)
(1.00959 0.322344 -0.00724908)
(1.00824 0.322543 0.000277652)
(1.00405 0.318142 0.0125741)
(1.00187 0.312119 0.0155882)
(1.00126 0.308932 0.0110542)
(0.997451 0.306032 0.00111642)
(0.994919 0.303115 -0.00109659)
(0.992627 0.300824 -0.00418238)
(0.990718 0.301015 -0.00621601)
(0.988802 0.303312 -0.00563656)
(0.986004 0.306926 -0.00372026)
(0.983059 0.309267 -0.0021174)
(0.981359 0.309768 -8.01782e-05)
(0.978596 0.308257 0.00110342)
(0.976675 0.305655 0.00247489)
(0.973811 0.302826 0.00355973)
(0.972282 0.299952 0.00426174)
(0.969632 0.296968 0.0043981)
(0.968549 0.293716 0.00428071)
(0.966219 0.290492 0.00410112)
(0.96573 0.287401 0.00398524)
(0.963792 0.284558 0.00395999)
(0.96382 0.281907 0.00399436)
(0.962104 0.27933 0.00405725)
(0.962476 0.276715 0.00411067)
(0.960827 0.273811 0.00408244)
(0.961307 0.27087 0.00398447)
(0.959784 0.267742 0.00384009)
(0.960447 0.264594 0.00372373)
(0.959074 0.261313 0.00365204)
(0.959779 0.258023 0.0036453)
(0.958515 0.254698 0.00363475)
(0.959291 0.251542 0.00367862)
(0.958283 0.248491 0.00367549)
(0.959199 0.245641 0.00363459)
(0.958579 0.243109 0.00363144)
(0.959564 0.240403 0.00342307)
(0.959293 0.238297 0.00350622)
(0.960276 0.235581 0.00301211)
(0.960138 0.233582 0.00334051)
(0.961082 0.230735 0.00301124)
(0.96058 0.228908 0.00336384)
(0.960864 0.224718 0.00443106)
(0.955469 0.223006 0.00560771)
(0.952018 0.214105 0.0147424)
(0.887982 0.197634 0.0283604)
(1.00126 0.293434 -0.10007)
(1.00499 0.295218 -0.0992484)
(1.00617 0.296236 -0.105366)
(1.00732 0.305232 -0.111994)
(1.00916 0.309988 -0.110393)
(1.00813 0.311415 -0.106206)
(1.00631 0.309988 -0.0951876)
(1.00269 0.305585 -0.0858766)
(1.00042 0.298356 -0.078126)
(0.998747 0.294297 -0.0813152)
(0.994938 0.290336 -0.0883037)
(0.992319 0.287247 -0.0944089)
(0.989698 0.287553 -0.100999)
(0.987807 0.288491 -0.103481)
(0.986514 0.291136 -0.102883)
(0.983471 0.294416 -0.100221)
(0.981685 0.29591 -0.0968233)
(0.978854 0.295484 -0.0940322)
(0.976784 0.293203 -0.0919025)
(0.973817 0.290324 -0.0903538)
(0.972309 0.287349 -0.0892271)
(0.96979 0.284606 -0.0883414)
(0.968844 0.281792 -0.0875836)
(0.966577 0.278827 -0.0868872)
(0.966078 0.275835 -0.0861946)
(0.964117 0.272856 -0.0854445)
(0.964125 0.270035 -0.0846446)
(0.962418 0.267319 -0.0837534)
(0.962816 0.264751 -0.0827729)
(0.961249 0.262017 -0.0817609)
(0.961731 0.259277 -0.0807641)
(0.960176 0.256449 -0.0797571)
(0.960815 0.253633 -0.078855)
(0.95946 0.250692 -0.0779292)
(0.960245 0.247704 -0.0770854)
(0.959051 0.244572 -0.0762008)
(0.959875 0.241516 -0.0753606)
(0.95886 0.238441 -0.0744633)
(0.95976 0.235538 -0.0736692)
(0.959079 0.232897 -0.0727565)
(0.960048 0.230211 -0.0721213)
(0.959719 0.228081 -0.0711575)
(0.960782 0.225497 -0.0707148)
(0.960619 0.22369 -0.0699007)
(0.96157 0.220961 -0.0691054)
(0.961182 0.21942 -0.0683443)
(0.961471 0.215744 -0.066118)
(0.956043 0.214502 -0.0644141)
(0.952629 0.208876 -0.0528232)
(0.888829 0.197458 -0.0345839)
(0.999504 0.247112 -0.184881)
(1.00666 0.246618 -0.19007)
(1.00898 0.244649 -0.191256)
(1.00822 0.248544 -0.194329)
(1.00792 0.256516 -0.193173)
(1.00751 0.265702 -0.190003)
(1.00531 0.265372 -0.186986)
(1.00231 0.262765 -0.181231)
(0.999383 0.258394 -0.176652)
(0.998017 0.254101 -0.173047)
(0.996231 0.249639 -0.175371)
(0.993317 0.245529 -0.180284)
(0.990697 0.244503 -0.181803)
(0.987659 0.244648 -0.184481)
(0.985866 0.245162 -0.185542)
(0.983071 0.247447 -0.185602)
(0.981349 0.250042 -0.183812)
(0.978749 0.251454 -0.181661)
(0.976912 0.250926 -0.179073)
(0.973923 0.249262 -0.176205)
(0.972221 0.246886 -0.173703)
(0.969556 0.244335 -0.171691)
(0.968598 0.241704 -0.170002)
(0.966395 0.23897 -0.168546)
(0.965932 0.236285 -0.167049)
(0.963974 0.233637 -0.165496)
(0.963949 0.231114 -0.163812)
(0.96216 0.228659 -0.162072)
(0.962496 0.226397 -0.160303)
(0.960925 0.224027 -0.158488)
(0.961478 0.221684 -0.156701)
(0.959943 0.219235 -0.154774)
(0.960555 0.216868 -0.15291)
(0.959148 0.214414 -0.151025)
(0.959891 0.211963 -0.149254)
(0.958725 0.20935 -0.14754)
(0.959558 0.206786 -0.145895)
(0.958581 0.204102 -0.144266)
(0.959472 0.20153 -0.142685)
(0.958783 0.199122 -0.141055)
(0.959691 0.196669 -0.139538)
(0.959313 0.19476 -0.13802)
(0.960338 0.192422 -0.136441)
(0.960235 0.190957 -0.135338)
(0.96107 0.188578 -0.133543)
(0.960791 0.187592 -0.13232)
(0.961069 0.184717 -0.129268)
(0.955727 0.184193 -0.127203)
(0.95224 0.182295 -0.114653)
(0.887884 0.177013 -0.0937987)
(0.999465 0.410087 0.288002)
(1.00043 0.423728 0.293659)
(1.00413 0.428355 0.294947)
(1.00664 0.427632 0.291196)
(1.00722 0.430165 0.281084)
(1.00782 0.425984 0.272194)
(1.00739 0.427253 0.274337)
(1.00568 0.429408 0.28261)
(1.00214 0.431818 0.287913)
(0.999106 0.429726 0.290832)
(0.995008 0.423644 0.298894)
(0.99208 0.421176 0.308339)
(0.990781 0.417838 0.307867)
(0.989054 0.414761 0.302666)
(0.985524 0.406646 0.29355)
(0.982957 0.396595 0.28715)
(0.982735 0.387535 0.282251)
(0.98268 0.379504 0.279214)
(0.983293 0.374965 0.274858)
(0.983852 0.371402 0.27028)
(0.98475 0.3672 0.265929)
(0.984935 0.362273 0.261944)
(0.985931 0.35721 0.258222)
(0.986515 0.352792 0.254995)
(0.988134 0.348752 0.251697)
(0.988906 0.344996 0.248434)
(0.990633 0.340977 0.244859)
(0.991139 0.336576 0.241441)
(0.992643 0.331651 0.238101)
(0.992869 0.326871 0.234942)
(0.994617 0.322107 0.23188)
(0.995078 0.317591 0.228865)
(0.996999 0.313173 0.225884)
(0.997251 0.309002 0.223088)
(0.999066 0.30511 0.220312)
(0.999135 0.301569 0.217773)
(1.00112 0.298385 0.215073)
(1.00116 0.295274 0.212526)
(1.0032 0.292326 0.209604)
(1.00312 0.289231 0.206948)
(1.00506 0.285847 0.204077)
(1.00476 0.282751 0.201671)
(1.00663 0.278988 0.198987)
(1.00618 0.275865 0.19729)
(1.00829 0.272386 0.194824)
(1.00729 0.269275 0.193492)
(1.00991 0.26509 0.19192)
(1.0066 0.260301 0.190746)
(1.00935 0.247715 0.195418)
(0.978645 0.220392 0.200288)
(1.00199 0.476867 0.151979)
(1.00139 0.478951 0.166383)
(1.00499 0.477205 0.179432)
(1.00689 0.476075 0.175707)
(1.00816 0.474843 0.162652)
(1.005 0.478289 0.148104)
(1.00478 0.480596 0.135488)
(1.00395 0.488608 0.134075)
(1.00298 0.498731 0.138102)
(1.00062 0.497703 0.142451)
(0.995658 0.493159 0.148028)
(0.990716 0.482987 0.163172)
(0.988179 0.476152 0.173118)
(0.987823 0.471761 0.172774)
(0.98721 0.469253 0.166825)
(0.984547 0.461614 0.157991)
(0.983098 0.453928 0.15116)
(0.98215 0.444488 0.147902)
(0.982481 0.436675 0.146316)
(0.983217 0.43077 0.144409)
(0.984693 0.42589 0.142055)
(0.985407 0.420878 0.140007)
(0.986566 0.415117 0.138578)
(0.986992 0.409302 0.137315)
(0.988378 0.40369 0.136163)
(0.989039 0.398777 0.134547)
(0.990723 0.394121 0.132608)
(0.991439 0.3898 0.130005)
(0.993145 0.38505 0.127578)
(0.993419 0.379936 0.125568)
(0.995035 0.37467 0.123782)
(0.99536 0.369437 0.122119)
(0.997321 0.364302 0.120536)
(0.997588 0.359245 0.119107)
(0.99949 0.354333 0.117834)
(0.9995 0.34962 0.116708)
(1.00133 0.345305 0.115676)
(1.00142 0.341332 0.114539)
(1.00331 0.337589 0.113302)
(1.00345 0.334241 0.111689)
(1.00535 0.33051 0.110032)
(1.00532 0.327357 0.108334)
(1.00717 0.323423 0.106426)
(1.00672 0.320045 0.105069)
(1.0089 0.316057 0.103844)
(1.0077 0.312469 0.102827)
(1.01024 0.307926 0.103184)
(1.00681 0.302808 0.103023)
(1.00955 0.292321 0.111437)
(0.978152 0.269943 0.123652)
(1.00176 0.50195 -0.00256307)
(1.0018 0.499746 0.0120185)
(1.00037 0.498465 0.0304616)
(1.00522 0.496237 0.0314233)
(1.00962 0.496123 0.024584)
(1.00971 0.495598 0.0120392)
(1.00369 0.493268 0.00585471)
(1.00228 0.496783 -0.000615294)
(0.999713 0.509752 -0.00398094)
(1.00018 0.521777 -0.0083537)
(0.999069 0.522801 -0.00515708)
(0.994758 0.517926 2.577e-08)
(0.989326 0.507603 0.0106715)
(0.986544 0.498924 0.0200531)
(0.985487 0.492664 0.0253685)
(0.98421 0.485951 0.0233538)
(0.983568 0.478504 0.0190638)
(0.982432 0.470288 0.0149116)
(0.982048 0.46171 0.0139742)
(0.982033 0.454326 0.0132305)
(0.983351 0.448051 0.0122262)
(0.984253 0.442758 0.0103583)
(0.985622 0.437366 0.00924273)
(0.986012 0.431695 0.00925776)
(0.987255 0.425713 0.00984358)
(0.987792 0.419993 0.0108401)
(0.989459 0.414478 0.0116208)
(0.990167 0.409455 0.0118636)
(0.99212 0.404597 0.0114607)
(0.992498 0.399598 0.011027)
(0.994118 0.39448 0.0103618)
(0.994302 0.389344 0.00951427)
(0.996183 0.384177 0.00858133)
(0.996524 0.379074 0.0078583)
(0.998492 0.373952 0.00736022)
(0.99862 0.368909 0.0072781)
(1.00036 0.363943 0.00745665)
(1.00031 0.359328 0.00793381)
(1.00215 0.354918 0.0082829)
(1.00209 0.3511 0.00876656)
(1.00417 0.347116 0.00852763)
(1.00403 0.343768 0.00878009)
(1.00624 0.340022 0.00805921)
(1.00572 0.336587 0.00787193)
(1.00806 0.332752 0.0077771)
(1.0069 0.329115 0.00752449)
(1.00937 0.32477 0.00912743)
(1.00583 0.319969 0.0102923)
(1.00861 0.312447 0.020938)
(0.977677 0.294723 0.0399938)
(1.00189 0.474659 -0.156219)
(1.00174 0.474135 -0.141677)
(0.998734 0.465868 -0.121685)
(1.00228 0.464315 -0.125321)
(1.00514 0.466648 -0.137593)
(1.01078 0.473374 -0.162185)
(1.01017 0.477135 -0.185654)
(1.00442 0.478935 -0.189155)
(1.00169 0.481705 -0.184213)
(0.997192 0.495357 -0.178288)
(0.995202 0.496928 -0.17045)
(0.993986 0.495048 -0.16333)
(0.990252 0.486426 -0.155936)
(0.987063 0.475755 -0.148204)
(0.985396 0.467869 -0.141332)
(0.98401 0.460819 -0.137611)
(0.983498 0.453715 -0.13795)
(0.983159 0.447048 -0.139375)
(0.983232 0.439391 -0.139691)
(0.983164 0.432668 -0.138531)
(0.984196 0.426342 -0.136256)
(0.985167 0.420702 -0.134496)
(0.986833 0.415195 -0.13334)
(0.987445 0.40971 -0.131939)
(0.988595 0.404043 -0.130168)
(0.988857 0.398408 -0.127903)
(0.990242 0.392887 -0.125392)
(0.990749 0.387623 -0.122932)
(0.992639 0.382644 -0.120962)
(0.993356 0.377901 -0.11929)
(0.995206 0.373223 -0.117772)
(0.995472 0.368668 -0.116359)
(0.997227 0.364049 -0.115303)
(0.997431 0.35943 -0.114282)
(0.999436 0.35479 -0.113473)
(0.999642 0.350106 -0.112367)
(1.00157 0.345453 -0.111242)
(1.00149 0.34086 -0.10956)
(1.00328 0.336398 -0.108025)
(1.00308 0.332369 -0.106004)
(1.00494 0.328372 -0.104572)
(1.00477 0.32482 -0.102914)
(1.00685 0.321346 -0.101683)
(1.00653 0.318003 -0.100971)
(1.0088 0.314688 -0.099615)
(1.00795 0.31139 -0.0990577)
(1.01034 0.307846 -0.0964379)
(1.00694 0.303987 -0.0938866)
(1.00959 0.300298 -0.0814757)
(0.978741 0.289613 -0.0578638)
(1.0014 0.407928 -0.296274)
(1.00469 0.417728 -0.281842)
(1.00194 0.423259 -0.246851)
(1.00166 0.41227 -0.236022)
(1.00452 0.402994 -0.237234)
(1.00594 0.402186 -0.24677)
(1.00769 0.40691 -0.268652)
(1.0062 0.411981 -0.291749)
(1.00311 0.411042 -0.304335)
(1.00084 0.416892 -0.304964)
(0.995341 0.42665 -0.301877)
(0.993418 0.430681 -0.295872)
(0.990912 0.428329 -0.285949)
(0.986722 0.4187 -0.27479)
(0.984204 0.410649 -0.262772)
(0.982829 0.403723 -0.254253)
(0.982589 0.396765 -0.249712)
(0.981983 0.390618 -0.248621)
(0.982315 0.384005 -0.248357)
(0.982207 0.377765 -0.247027)
(0.982695 0.372124 -0.244069)
(0.983094 0.367061 -0.240889)
(0.984717 0.362439 -0.238273)
(0.985777 0.357877 -0.236199)
(0.987473 0.353228 -0.23383)
(0.988 0.348368 -0.231135)
(0.989362 0.343509 -0.227748)
(0.989562 0.33876 -0.224038)
(0.991096 0.334162 -0.220392)
(0.991549 0.32978 -0.217167)
(0.993583 0.325532 -0.214136)
(0.993982 0.321423 -0.211172)
(0.995875 0.317497 -0.208482)
(0.996011 0.313594 -0.206066)
(0.997906 0.309823 -0.204026)
(0.998141 0.305967 -0.202093)
(1.00013 0.30211 -0.200273)
(1.00025 0.298189 -0.198142)
(1.00213 0.294229 -0.195956)
(1.002 0.290529 -0.193348)
(1.00381 0.286934 -0.1907)
(1.00349 0.283584 -0.188262)
(1.0055 0.280505 -0.185407)
(1.00509 0.277593 -0.183558)
(1.00736 0.274604 -0.181124)
(1.00657 0.27212 -0.179287)
(1.00911 0.269028 -0.176156)
(1.0058 0.26658 -0.17249)
(1.00852 0.266438 -0.159681)
(0.97724 0.262961 -0.132839)
(1.00111 0.502014 0.437477)
(1.01498 0.562073 0.450512)
(1.02742 0.584795 0.421524)
(1.01857 0.593009 0.423241)
(1.01131 0.596299 0.438223)
(1.00226 0.583188 0.455673)
(0.997279 0.57126 0.467307)
(0.993902 0.554303 0.47097)
(0.990849 0.534208 0.462662)
(0.987463 0.510331 0.453309)
(0.984519 0.492836 0.441157)
(0.986958 0.48552 0.428398)
(0.991015 0.481789 0.411097)
(0.994715 0.477639 0.394023)
(0.997562 0.471332 0.379773)
(0.999298 0.462657 0.370044)
(1.00213 0.453069 0.362303)
(1.00562 0.442414 0.358107)
(1.00661 0.434097 0.351749)
(1.00847 0.427982 0.346022)
(1.00983 0.421771 0.340816)
(1.01058 0.415218 0.335751)
(1.01085 0.408617 0.330945)
(1.01125 0.40244 0.326221)
(1.01217 0.396896 0.321183)
(1.01348 0.391697 0.31592)
(1.01478 0.386627 0.310428)
(1.01585 0.381297 0.305122)
(1.01657 0.375826 0.300101)
(1.01699 0.370324 0.29541)
(1.01748 0.365 0.290934)
(1.01814 0.359733 0.28687)
(1.01884 0.354562 0.283279)
(1.01945 0.34949 0.280137)
(1.02 0.344805 0.277142)
(1.02047 0.340427 0.274177)
(1.02099 0.336577 0.270875)
(1.02149 0.332859 0.267443)
(1.02209 0.329454 0.263668)
(1.02256 0.325851 0.259998)
(1.02312 0.322276 0.256369)
(1.02351 0.318474 0.253044)
(1.02384 0.314721 0.24985)
(1.02422 0.310718 0.247159)
(1.02436 0.307157 0.244257)
(1.02495 0.303355 0.241972)
(1.02485 0.299635 0.239168)
(1.0263 0.294696 0.238038)
(1.02605 0.285414 0.237697)
(1.03203 0.270149 0.242799)
(1.00595 0.668775 0.208853)
(1.01693 0.687271 0.204378)
(1.01966 0.710861 0.20777)
(1.01502 0.717333 0.21631)
(1.00718 0.724502 0.225851)
(1.00155 0.718991 0.233853)
(0.998381 0.701692 0.243089)
(0.994154 0.675403 0.247642)
(0.992854 0.649571 0.239552)
(0.991808 0.620869 0.221396)
(0.98845 0.602965 0.213093)
(0.987382 0.586721 0.209353)
(0.99013 0.572732 0.205924)
(0.99491 0.563196 0.200868)
(0.998944 0.558228 0.189798)
(1.00164 0.552367 0.181839)
(1.00274 0.547174 0.177122)
(1.00572 0.537383 0.171298)
(1.0069 0.528978 0.171164)
(1.00851 0.519842 0.17062)
(1.01048 0.510876 0.168215)
(1.01224 0.501895 0.16415)
(1.01301 0.493857 0.160287)
(1.01299 0.486465 0.157871)
(1.01287 0.479587 0.156275)
(1.01329 0.47308 0.154946)
(1.01414 0.467091 0.153075)
(1.01545 0.46103 0.150669)
(1.01686 0.45525 0.14731)
(1.01781 0.44974 0.144281)
(1.01827 0.443986 0.141521)
(1.0187 0.43791 0.139135)
(1.01924 0.431596 0.136967)
(1.01984 0.425412 0.135147)
(1.02035 0.41934 0.133696)
(1.0209 0.413688 0.132661)
(1.0211 0.408202 0.131711)
(1.02164 0.403362 0.130778)
(1.02168 0.398458 0.129501)
(1.02237 0.394347 0.127921)
(1.02241 0.389863 0.126088)
(1.02318 0.385944 0.124196)
(1.02319 0.381782 0.122156)
(1.02388 0.377624 0.120712)
(1.02389 0.373721 0.118837)
(1.02445 0.36967 0.117939)
(1.02438 0.365551 0.117975)
(1.02543 0.359743 0.117704)
(1.02678 0.352662 0.124075)
(1.03079 0.331781 0.138783)
(1.00434 0.70322 -0.0169567)
(1.02318 0.709549 -0.0544692)
(1.01562 0.731471 -0.0606127)
(1.01206 0.743783 -0.0542461)
(1.00891 0.758537 -0.0409018)
(1.00073 0.762522 -0.0235069)
(0.989467 0.75397 -0.0058528)
(0.983447 0.736837 0.0133244)
(0.982218 0.717126 0.028179)
(0.98962 0.68532 0.0244151)
(0.995094 0.660872 0.00727929)
(0.991684 0.639767 -0.00146332)
(0.9916 0.624256 -0.00282088)
(0.995466 0.612773 -0.00127934)
(0.999798 0.60208 -0.00248479)
(1.00362 0.592437 -0.00763847)
(1.0051 0.584542 -0.00968682)
(1.0075 0.575222 -0.0144327)
(1.00857 0.56521 -0.0159998)
(1.00886 0.555307 -0.0149168)
(1.00967 0.546634 -0.0118476)
(1.01131 0.537533 -0.00913517)
(1.01347 0.527914 -0.00873484)
(1.01481 0.518876 -0.00975971)
(1.01519 0.510457 -0.0105836)
(1.01527 0.503112 -0.010977)
(1.01541 0.496324 -0.0107074)
(1.01583 0.490185 -0.0101061)
(1.0169 0.483887 -0.00975145)
(1.01796 0.47758 -0.0102658)
(1.01866 0.47132 -0.0105902)
(1.01912 0.465201 -0.0111264)
(1.01953 0.458855 -0.0112409)
(1.02014 0.452565 -0.0115031)
(1.02067 0.446071 -0.0114605)
(1.02129 0.440019 -0.0114425)
(1.02182 0.43402 -0.0109746)
(1.02215 0.428651 -0.0104985)
(1.02269 0.423532 -0.00971644)
(1.02277 0.418596 -0.00928855)
(1.02336 0.414177 -0.00893139)
(1.0234 0.409424 -0.00874153)
(1.02403 0.405295 -0.00924301)
(1.02419 0.400762 -0.00933518)
(1.02467 0.3966 -0.00984159)
(1.02491 0.391742 -0.0104376)
(1.02523 0.388551 -0.00920965)
(1.02541 0.382232 -0.00776982)
(1.02723 0.378551 0.00068376)
(1.03113 0.362475 0.0224654)
(1.00644 0.657119 -0.227171)
(1.02395 0.663602 -0.283175)
(1.01989 0.673824 -0.280287)
(1.00759 0.683442 -0.260545)
(1.00464 0.687097 -0.238442)
(1.00755 0.689992 -0.221878)
(1.00491 0.681296 -0.206963)
(0.99436 0.666152 -0.195417)
(0.983704 0.655977 -0.17946)
(0.98439 0.64061 -0.169706)
(0.99085 0.612448 -0.17437)
(0.992494 0.588957 -0.184145)
(0.992837 0.571405 -0.189248)
(0.994077 0.558241 -0.187482)
(0.9966 0.552297 -0.181898)
(1.00134 0.54355 -0.177904)
(1.00342 0.536732 -0.175207)
(1.00605 0.529845 -0.174976)
(1.00772 0.522102 -0.174838)
(1.00886 0.513915 -0.173809)
(1.0094 0.506096 -0.172739)
(1.00998 0.499336 -0.16961)
(1.01145 0.491834 -0.16618)
(1.01329 0.48326 -0.163336)
(1.01471 0.474696 -0.161224)
(1.01545 0.46631 -0.159214)
(1.01583 0.45902 -0.157216)
(1.01595 0.45262 -0.154926)
(1.01624 0.447076 -0.152444)
(1.01713 0.441655 -0.150125)
(1.018 0.436588 -0.148145)
(1.01885 0.431739 -0.146424)
(1.01943 0.426662 -0.145082)
(1.01998 0.421496 -0.143804)
(1.02057 0.41577 -0.142689)
(1.02105 0.409925 -0.141423)
(1.02165 0.403978 -0.1401)
(1.02213 0.398257 -0.138448)
(1.02241 0.392998 -0.136581)
(1.02306 0.388189 -0.134376)
(1.02293 0.383536 -0.132463)
(1.02377 0.379622 -0.130223)
(1.0234 0.375243 -0.128381)
(1.0245 0.371514 -0.127059)
(1.02415 0.367542 -0.125134)
(1.0251 0.362995 -0.124362)
(1.02535 0.36021 -0.122187)
(1.02587 0.355095 -0.119279)
(1.02805 0.354792 -0.110608)
(1.03078 0.346198 -0.0863962)
(1.00312 0.558997 -0.426021)
(1.03039 0.53223 -0.489496)
(1.02226 0.542314 -0.528904)
(1.01305 0.569257 -0.52936)
(0.998012 0.59687 -0.499552)
(0.991632 0.613622 -0.464913)
(0.992107 0.620307 -0.436194)
(0.99464 0.608416 -0.415147)
(0.98812 0.594927 -0.395947)
(0.982303 0.580644 -0.377952)
(0.986227 0.564495 -0.370785)
(0.992726 0.537152 -0.372817)
(0.995284 0.515707 -0.375617)
(0.998361 0.494983 -0.377134)
(0.999351 0.481894 -0.372945)
(1.00207 0.47399 -0.367004)
(1.00547 0.466066 -0.356803)
(1.00734 0.460478 -0.351703)
(1.00937 0.45378 -0.34697)
(1.01088 0.446941 -0.342528)
(1.01163 0.439307 -0.338507)
(1.0115 0.432461 -0.333869)
(1.01169 0.426208 -0.328662)
(1.01272 0.419723 -0.323869)
(1.01432 0.412854 -0.319255)
(1.01583 0.405723 -0.315176)
(1.01695 0.398529 -0.310961)
(1.01764 0.391917 -0.306935)
(1.0179 0.385946 -0.302458)
(1.01821 0.380397 -0.298302)
(1.01888 0.375197 -0.294082)
(1.01946 0.37064 -0.290122)
(1.02009 0.366377 -0.285997)
(1.02049 0.362256 -0.282427)
(1.02096 0.358074 -0.278794)