# vtk DataFile Version 4.0
vtk output
ASCII
DATASET UNSTRUCTURED_GRID
POINTS 4 float
-3.24843754e-03 0.00000000e+00 1.00000000e+01 
-1.08281255e-03 0.00000000e+00 1.00000000e+01 
1.08281255e-03 0.00000000e+00 1.00000000e+01 
3.24843754e-03 0.00000000e+00 1.00000000e+01 

CELLS 4 8
1 0
1 1
1 2
1 3

CELL_TYPES 4
1
1
1
1
POINT_DATA 4
FIELD FieldData 3
MPC_DISPLACEMENT 3 4  float
0.00000000e+00 4.00000000e+00 1.00000000e+00 
0.00000000e+00 4.00000000e+00 1.00000000e+00 
0.00000000e+00 4.00000000e+00 1.00000000e+00 
0.00000000e+00 4.00000000e+00 1.00000000e+00 
MPC_AREA 1 4  float
1.60000002e+00
1.60000002e+00
1.60000002e+00
1.60000002e+00
BOUNDARY 1 4  float
1.00000000e+00
1.00000000e+00
1.00000000e+00
1.00000000e+00
