# vtk DataFile Version 4.0
vtk output
ASCII
DATASET UNSTRUCTURED_GRID
POINTS 5 float
-2.0000000e-01 0.0000000e+00 0.0000000e+00 
-1.0000000e-01 0.0000000e+00 0.0000000e+00 
0.0000000e+00 0.0000000e+00 0.0000000e+00 
1.0000000e-01 0.0000000e+00 0.0000000e+00 
2.0000000e-01 0.0000000e+00 0.0000000e+00 

CELLS 4 12
2 0 1
2 1 2
2 2 3
2 3 4

CELL_TYPES 4
3
3
3
3
POINT_DATA 5
FIELD FieldData 0
CELL_DATA 4
FIELD FieldData 0
