# vtk DataFile Version 4.0
vtk output
ASCII
DATASET UNSTRUCTURED_GRID
POINTS 4 float
-1.5000001e-01 0.0000000e+00 0.0000000e+00 
-5.0000001e-02 0.0000000e+00 0.0000000e+00 
5.0000001e-02 0.0000000e+00 0.0000000e+00 
1.5000001e-01 0.0000000e+00 0.0000000e+00 

CELLS 4 8
1 0
1 1
1 2
1 3

CELL_TYPES 4
1
1
1
1
CELL_DATA 4
FIELD FieldData 3
BOUNDARY 1 4  float
1.0000000e+00
1.0000000e+00
1.0000000e+00
1.0000000e+00
MPC_DISPLACEMENT 3 4  float
0.0000000e+00 0.0000000e+00 0.0000000e+00 
0.0000000e+00 0.0000000e+00 0.0000000e+00 
0.0000000e+00 0.0000000e+00 0.0000000e+00 
0.0000000e+00 0.0000000e+00 0.0000000e+00 
MPC_AREA 1 4  float
1.0000000e-01
1.0000000e-01
1.0000000e-01
1.0000000e-01
