# vtk DataFile Version 4.0
vtk output
ASCII
DATASET UNSTRUCTURED_GRID
POINTS 3 float
2.00000000e+00 1.00000000e+00 0.00000000e+00 
2.00000000e+00 5.00000000e-01 0.00000000e+00 
2.00000000e+00 0.00000000e+00 0.00000000e+00 

CELLS 2 6
2 0 1
2 1 2

CELL_TYPES 2
3
3
POINT_DATA 3
FIELD FieldData 3
PRESSURE 1 3  float
3.16000015e-01
3.16000015e-01
3.16000015e-01
DISPLACEMENT 3 3  float
3.16000000e-01 1.00000000e+00 0.00000000e+00 
3.16000000e-01 5.00000000e-01 0.00000000e+00 
3.16000000e-01 0.00000000e+00 0.00000000e+00 
VELOCITY 3 3  float
4.00000000e+00 2.00000000e+00 0.00000000e+00 
4.00000000e+00 1.00000000e+00 0.00000000e+00 
4.00000000e+00 0.00000000e+00 0.00000000e+00 
CELL_DATA 2
FIELD FieldData 2
DENSITY 1 2  float
2.00000000e+00
3.00000000e+00
YOUNG_MODULUS 1 2  float
3.16000015e-01
4.74000007e-01
