/*--------------------------------*- C++ -*----------------------------------*\
| =========                 |                                                 |
| \\      /  F ield         | OpenFOAM: The Open Source CFD Toolbox           |
|  \\    /   O peration     | Version:  4.1                                   |
|   \\  /    A nd           | Web:      www.OpenFOAM.org                      |
|    \\/     M anipulation  |                                                 |
\*---------------------------------------------------------------------------*/
FoamFile
{
    version     2.0;
    format      ascii;
    class       volScalarField;
    location    "2";
    object      static(p);
}
// * * * * * * * * * * * * * * * * * * * * * * * * * * * * * * * * * * * * * //

dimensions      [1 -1 -2 0 0 0 0];

internalField   nonuniform List<scalar> 
3700
(
-164.106
-164.081
-163.682
-163.161
-162.552
-161.871
-161.079
-160.17
-159.096
-157.869
-156.477
-154.959
-153.3
-151.485
-149.487
-147.364
-145.074
-142.606
-139.997
-137.302
-134.451
-131.436
-128.234
-124.896
-121.42
-117.812
-114.05
-110.185
-106.244
-102.243
-98.0805
-93.753
-89.2799
-84.7006
-80.0017
-75.2295
-70.3855
-65.489
-60.5009
-55.4855
-50.5335
-45.6928
-40.8783
-36.0458
-31.0529
-25.7648
-20.1425
-14.3456
-8.53733
-2.82908
-164.121
-164.078
-163.678
-163.158
-162.55
-161.869
-161.078
-160.169
-159.094
-157.868
-156.476
-154.957
-153.298
-151.483
-149.485
-147.362
-145.073
-142.605
-139.996
-137.301
-134.45
-131.435
-128.233
-124.895
-121.419
-117.811
-114.049
-110.184
-106.243
-102.242
-98.0797
-93.752
-89.279
-84.6994
-80.0007
-75.2283
-70.3848
-65.4884
-60.5004
-55.4844
-50.5324
-45.6916
-40.8774
-36.0448
-31.0524
-25.7644
-20.1422
-14.3447
-8.53642
-2.82857
-163.996
-164.008
-163.645
-163.142
-162.542
-161.865
-161.075
-160.166
-159.093
-157.866
-156.474
-154.955
-153.297
-151.482
-149.484
-147.361
-145.072
-142.603
-139.995
-137.299
-134.449
-131.433
-128.232
-124.894
-121.418
-117.81
-114.048
-110.182
-106.242
-102.241
-98.079
-93.751
-89.2781
-84.6984
-79.9999
-75.2273
-70.3841
-65.4873
-60.4995
-55.4833
-50.5313
-45.6905
-40.8767
-36.0442
-31.0522
-25.7639
-20.1416
-14.3436
-8.53549
-2.82811
-163.91
-163.973
-163.63
-163.136
-162.54
-161.863
-161.074
-160.166
-159.092
-157.866
-156.474
-154.956
-153.297
-151.483
-149.484
-147.361
-145.072
-142.604
-139.995
-137.3
-134.449
-131.433
-128.232
-124.894
-121.418
-117.81
-114.048
-110.182
-106.242
-102.241
-98.0789
-93.7511
-89.2781
-84.6985
-79.9999
-75.2276
-70.3839
-65.4869
-60.4991
-55.4833
-50.5313
-45.6906
-40.8768
-36.0446
-31.0523
-25.7638
-20.1413
-14.3437
-8.53561
-2.82834
-163.98
-164.014
-163.651
-163.146
-162.545
-161.867
-161.077
-160.168
-159.094
-157.867
-156.475
-154.957
-153.299
-151.484
-149.485
-147.362
-145.073
-142.605
-139.996
-137.301
-134.45
-131.435
-128.233
-124.895
-121.419
-117.811
-114.049
-110.184
-106.243
-102.242
-98.0796
-93.7521
-89.279
-84.6996
-80.0008
-75.2287
-70.3846
-65.4877
-60.4998
-55.4844
-50.5325
-45.6919
-40.8776
-36.0454
-31.0526
-25.7642
-20.1417
-14.3448
-8.5366
-2.82886
-163.72
-163.707
-163.371
-162.903
-162.342
-161.684
-160.91
-160.005
-158.941
-157.717
-156.332
-154.813
-153.16
-151.345
-149.355
-147.229
-144.944
-142.473
-139.869
-137.172
-134.327
-131.309
-128.111
-124.769
-121.3
-117.692
-113.936
-110.068
-106.134
-102.133
-97.9776
-93.6476
-89.1785
-84.5968
-79.9049
-75.1309
-70.2943
-65.3986
-60.4184
-55.399
-50.4506
-45.6079
-40.7992
-35.9659
-30.9803
-25.6912
-20.0749
-14.2784
-8.48171
-2.80026
-163.588
-163.59
-163.313
-162.872
-162.322
-161.669
-160.897
-159.994
-158.931
-157.707
-156.321
-154.801
-153.147
-151.332
-149.343
-147.22
-144.936
-142.463
-139.859
-137.162
-134.317
-131.3
-128.102
-124.759
-121.292
-117.684
-113.928
-110.059
-106.124
-102.125
-97.9707
-93.6397
-89.1705
-84.5888
-79.8966
-75.1218
-70.2878
-65.3946
-60.4131
-55.3904
-50.441
-45.5994
-40.7914
-35.9585
-30.9762
-25.6899
-20.0724
-14.2719
-8.4745
-2.7978
-163.463
-163.466
-163.23
-162.824
-162.294
-161.651
-160.884
-159.983
-158.921
-157.697
-156.313
-154.793
-153.141
-151.326
-149.336
-147.212
-144.929
-142.456
-139.852
-137.156
-134.312
-131.293
-128.095
-124.753
-121.285
-117.677
-113.921
-110.052
-106.118
-102.119
-97.9658
-93.6347
-89.1652
-84.5834
-79.8916
-75.1175
-70.283
-65.3882
-60.4069
-55.3838
-50.4336
-45.5929
-40.7872
-35.9564
-30.9754
-25.6878
-20.0684
-14.2658
-8.46852
-2.7962
-163.498
-163.487
-163.225
-162.815
-162.287
-161.647
-160.881
-159.981
-158.919
-157.696
-156.312
-154.794
-153.143
-151.329
-149.337
-147.21
-144.928
-142.457
-139.852
-137.156
-134.312
-131.293
-128.096
-124.754
-121.284
-117.676
-113.921
-110.052
-106.117
-102.119
-97.966
-93.6353
-89.1656
-84.5837
-79.8924
-75.1189
-70.2821
-65.3852
-60.4048
-55.3836
-50.4343
-45.5935
-40.7884
-35.959
-30.9768
-25.6864
-20.0665
-14.2657
-8.46922
-2.79681
-163.651
-163.627
-163.303
-162.856
-162.31
-161.662
-160.893
-159.99
-158.928
-157.704
-156.321
-154.802
-153.151
-151.338
-149.345
-147.218
-144.934
-142.464
-139.86
-137.162
-134.319
-131.3
-128.102
-124.761
-121.291
-117.682
-113.927
-110.059
-106.125
-102.124
-97.9704
-93.6406
-89.1712
-84.5893
-79.8981
-75.1246
-70.2863
-65.3887
-60.4096
-55.3905
-50.4423
-45.6005
-40.7936
-35.9631
-30.9786
-25.6872
-20.0691
-14.2719
-8.47584
-2.79892
-163.811
-163.7
-163.296
-162.815
-162.268
-161.629
-160.873
-159.984
-158.936
-157.726
-156.354
-154.845
-153.208
-151.409
-149.429
-147.312
-145.042
-142.58
-139.982
-137.295
-134.467
-131.462
-128.273
-124.939
-121.482
-117.885
-114.139
-110.274
-106.346
-102.359
-98.2207
-93.8997
-89.4387
-84.8641
-80.1803
-75.4099
-70.5769
-65.6878
-60.7151
-55.6873
-50.7321
-45.8892
-41.0857
-36.2698
-31.3132
-26.0463
-20.4404
-14.6419
-8.84411
-3.16785
-162.894
-163.033
-162.958
-162.627
-162.136
-161.514
-160.762
-159.868
-158.814
-157.594
-156.209
-154.683
-153.03
-151.217
-149.237
-147.123
-144.842
-142.357
-139.752
-137.062
-134.222
-131.208
-128.006
-124.658
-121.202
-117.599
-113.839
-109.961
-106.031
-102.047
-97.8982
-93.5601
-89.0903
-84.5091
-79.8154
-75.0349
-70.2124
-65.3348
-60.3489
-55.3043
-50.3516
-45.5197
-40.7177
-35.896
-30.9409
-25.6685
-20.0387
-14.2139
-8.41694
-2.77124
-162.908
-162.917
-162.825
-162.534
-162.078
-161.477
-160.735
-159.847
-158.796
-157.575
-156.19
-154.67
-153.025
-151.212
-149.22
-147.104
-144.831
-142.348
-139.74
-137.053
-134.214
-131.196
-127.996
-124.65
-121.188
-117.582
-113.825
-109.95
-106.019
-102.035
-97.889
-93.5525
-89.0817
-84.4997
-79.8079
-75.0318
-70.2053
-65.3178
-60.3329
-55.2904
-50.3337
-45.5045
-40.712
-35.8984
-30.9447
-25.6647
-20.028
-14.1965
-8.40032
-2.76857
-163.133
-163.066
-162.855
-162.527
-162.066
-161.468
-160.729
-159.84
-158.788
-157.568
-156.188
-154.673
-153.034
-151.225
-149.226
-147.099
-144.827
-142.35
-139.742
-137.054
-134.216
-131.195
-127.996
-124.652
-121.186
-117.578
-113.824
-109.949
-106.016
-102.033
-97.891
-93.5551
-89.0831
-84.5003
-79.8106
-75.0368
-70.2021
-65.3063
-60.325
-55.2893
-50.3363
-45.5066
-40.7165
-35.9085
-30.9502
-25.6586
-20.0206
-14.1958
-8.40269
-2.77041
-163.511
-163.408
-163.037
-162.618
-162.114
-161.497
-160.75
-159.857
-158.802
-157.583
-156.205
-154.691
-153.051
-151.243
-149.246
-147.114
-144.836
-142.364
-139.756
-137.063
-134.229
-131.208
-128.008
-124.665
-121.197
-117.589
-113.836
-109.966
-106.033
-102.042
-97.8962
-93.564
-89.0937
-84.5109
-79.8222
-75.0484
-70.2056
-65.3069
-60.333
-55.3052
-50.3577
-45.524
-40.7275
-35.9173
-30.9525
-25.6558
-20.0238
-14.2142
-8.42319
-2.77619
-164.099
-163.949
-163.326
-162.77
-162.212
-161.585
-160.844
-159.968
-158.934
-157.737
-156.379
-154.881
-153.261
-151.482
-149.507
-147.394
-145.139
-142.685
-140.088
-137.41
-134.602
-131.611
-128.429
-125.1
-121.653
-118.066
-114.329
-110.468
-106.542
-102.57
-98.449
-94.1366
-89.6816
-85.1134
-80.4349
-75.668
-70.8319
-65.9457
-60.9853
-55.9476
-50.9855
-46.1448
-41.3414
-36.5474
-31.6294
-26.3814
-20.7792
-14.9741
-9.17367
-3.50256
-162.44
-162.559
-162.614
-162.392
-161.965
-161.376
-160.644
-159.764
-158.719
-157.505
-156.116
-154.579
-152.923
-151.114
-149.148
-147.051
-144.77
-142.265
-139.655
-136.977
-134.142
-131.137
-127.926
-124.566
-121.131
-117.537
-113.765
-109.871
-105.944
-101.988
-97.8454
-93.493
-89.0211
-84.4429
-79.7427
-74.9474
-70.1421
-65.2973
-60.2995
-55.2147
-50.2587
-45.4456
-40.6455
-35.8411
-30.9318
-25.6808
-20.024
-14.1661
-8.37037
-2.75333
-162.528
-162.512
-162.492
-162.287
-161.893
-161.329
-160.61
-159.739
-158.7
-157.481
-156.089
-154.567
-152.935
-151.121
-149.116
-147.016
-144.764
-142.261
-139.641
-136.974
-134.141
-131.123
-127.919
-124.566
-121.11
-117.507
-113.747
-109.861
-105.932
-101.971
-97.8336
-93.4878
-89.0141
-84.4325
-79.7376
-74.9593
-70.1427
-65.2642
-60.27
-55.1931
-50.2193
-45.4138
-40.6435
-35.8631
-30.9577
-25.6803
-20.0007
-14.1246
-8.33332
-2.74745
-162.798
-162.725
-162.559
-162.29
-161.881
-161.318
-160.599
-159.724
-158.68
-157.464
-156.086
-154.576
-152.952
-151.153
-149.135
-147.002
-144.751
-142.265
-139.645
-136.975
-134.146
-131.119
-127.917
-124.57
-121.104
-117.497
-113.742
-109.853
-105.918
-101.968
-97.845
-93.4961
-89.0166
-84.4332
-79.7424
-74.9691
-70.1359
-65.2394
-60.2503
-55.1877
-50.2254
-45.4181
-40.6533
-35.8873
-30.972
-25.667
-19.9825
-14.1204
-8.33735
-2.75084
-163.264
-163.158
-162.794
-162.405
-161.938
-161.35
-160.619
-159.736
-158.689
-157.475
-156.101
-154.594
-152.968
-151.173
-149.164
-147.021
-144.751
-142.277
-139.66
-136.974
-134.155
-131.133
-127.926
-124.582
-121.114
-117.507
-113.755
-109.88
-105.949
-101.97
-97.8333
-93.498
-89.0256
-84.442
-79.7551
-74.981
-70.1218
-65.22
-60.2579
-55.2154
-50.2698
-45.4507
-40.6637
-35.8914
-30.9621
-25.6527
-19.9876
-14.1617
-8.38141
-2.76209
-163.149
-163.257
-162.939
-162.521
-162.032
-161.434
-160.71
-159.842
-158.813
-157.62
-156.263
-154.764
-153.147
-151.379
-149.412
-147.294
-145.04
-142.584
-139.98
-137.3
-134.501
-131.517
-128.331
-124.996
-121.554
-117.973
-114.234
-110.368
-106.441
-102.478
-98.3646
-94.0484
-89.5919
-85.0249
-80.3486
-75.5743
-70.7252
-65.8301
-60.8834
-55.8302
-50.852
-46.0328
-41.2329
-36.4531
-31.5739
-26.3471
-20.7287
-14.9159
-9.12872
-3.46887
-162.416
-162.443
-162.484
-162.294
-161.894
-161.321
-160.599
-159.723
-158.681
-157.472
-156.08
-154.534
-152.872
-151.068
-149.118
-147.031
-144.745
-142.221
-139.611
-136.944
-134.112
-131.112
-127.89
-124.521
-121.108
-117.521
-113.737
-109.826
-105.902
-101.972
-97.8316
-93.4634
-88.9909
-84.4168
-79.7102
-74.8976
-70.1082
-65.2951
-60.2856
-55.1644
-50.2144
-45.4217
-40.6187
-35.8167
-30.9345
-25.7004
-20.0243
-14.1459
-8.35726
-2.7522
-162.407
-162.414
-162.393
-162.206
-161.831
-161.28
-160.57
-159.706
-158.672
-157.45
-156.049
-154.528
-152.906
-151.085
-149.069
-146.988
-144.753
-142.229
-139.602
-136.954
-134.123
-131.096
-127.891
-124.535
-121.082
-117.48
-113.718
-109.826
-105.899
-101.95
-97.8157
-93.4641
-88.9893
-84.4083
-79.7161
-74.9363
-70.1161
-65.2412
-60.2471
-55.1443
-50.1604
-45.3806
-40.6241
-35.8569
-30.9766
-25.6984
-19.9947
-14.0872
-8.30226
-2.74265
-162.643
-162.613
-162.472
-162.219
-161.823
-161.27
-160.558
-159.686
-158.645
-157.43
-156.052
-154.544
-152.93
-151.137
-149.102
-146.966
-144.729
-142.234
-139.607
-136.957
-134.13
-131.089
-127.886
-124.541
-121.075
-117.468
-113.712
-109.807
-105.872
-101.953
-97.8434
-93.4789
-88.9928
-84.4093
-79.7222
-74.9486
-70.1081
-65.211
-60.2183
-55.135
-50.1724
-45.3877
-40.637
-35.8912
-30.9983
-25.6785
-19.9701
-14.0846
-8.30551
-2.74455
-162.98
-162.986
-162.7
-162.336
-161.881
-161.3
-160.575
-159.694
-158.649
-157.436
-156.065
-154.559
-152.941
-151.153
-149.136
-146.984
-144.718
-142.244
-139.62
-136.937
-134.129
-131.106
-127.893
-124.549
-121.082
-117.475
-113.723
-109.848
-105.917
-101.943
-97.8079
-93.4714
-88.9985
-84.4163
-79.7304
-74.9529
-70.0763
-65.1778
-60.23
-55.1757
-50.2362
-45.4296
-40.6435
-35.8884
-30.9799
-25.6605
-19.9745
-14.1475
-8.37123
-2.75787
-163.624
-162.628
-162.838
-163.932
-163.578
-162.394
-162.624
-163.547
-163.061
-163.237
-163.82
-163.401
-162.826
-163.034
-163.099
-163.048
-163.043
-163.205
-162.953
-162.898
-162.906
-162.599
-162.688
-162.61
-162.662
-162.474
-162.595
-162.517
-162.047
-162.181
-162.065
-162.122
-161.942
-162.119
-161.997
-161.401
-161.559
-161.413
-161.508
-161.307
-161.513
-161.356
-160.631
-160.817
-160.642
-160.778
-160.545
-160.78
-160.591
-159.716
-159.94
-159.73
-159.909
-159.632
-159.909
-159.681
-158.641
-158.906
-158.658
-158.881
-158.559
-158.88
-158.611
-157.4
-157.708
-157.42
-157.689
-157.318
-157.686
-157.373
-156.001
-156.339
-156.015
-156.336
-155.919
-156.32
-155.965
-154.47
-154.824
-154.472
-154.842
-154.388
-154.804
-154.418
-152.812
-153.184
-152.803
-153.228
-152.735
-153.164
-152.749
-150.982
-151.395
-150.975
-151.46
-150.905
-151.377
-150.923
-148.966
-149.438
-148.984
-149.489
-148.881
-149.426
-148.935
-146.815
-147.346
-146.856
-147.373
-146.725
-147.34
-146.806
-144.51
-145.084
-144.549
-145.123
-144.417
-145.081
-144.493
-142.013
-142.611
-142.039
-142.672
-141.914
-142.606
-141.976
-139.391
-140.013
-139.423
-140.072
-139.289
-140.005
-139.362
-136.687
-137.34
-136.723
-137.395
-136.59
-137.335
-136.664
-133.836
-134.521
-133.872
-134.597
-133.742
-134.52
-133.813
-130.789
-131.533
-130.838
-131.613
-130.689
-131.536
-130.779
-127.563
-128.347
-127.609
-128.431
-127.456
-128.353
-127.542
-124.203
-125.006
-124.246
-125.101
-124.095
-125.008
-124.179
-120.721
-121.573
-120.784
-121.658
-120.614
-121.58
-120.723
-117.093
-117.992
-117.165
-118.077
-116.984
-118.007
-117.1
-113.32
-114.244
-113.384
-114.342
-113.207
-114.258
-113.314
-109.435
-110.37
-109.491
-110.48
-109.319
-110.381
-109.416
-105.499
-106.444
-105.56
-106.554
-105.386
-106.452
-105.49
-101.497
-102.482
-101.573
-102.589
-101.388
-102.499
-101.509
-97.3273
-98.3582
-97.403
-98.4767
-97.216
-98.3829
-97.3345
-92.9719
-94.0336
-93.0419
-94.1659
-92.8564
-94.0567
-92.9684
-88.4851
-89.5755
-88.558
-89.7121
-88.3678
-89.5987
-88.4838
-83.8871
-85.0079
-83.9646
-85.1461
-83.7687
-85.0331
-83.8901
-79.1857
-80.3233
-79.256
-80.4702
-79.0653
-80.3493
-79.1777
-74.3995
-75.543
-74.4626
-75.7017
-74.2747
-75.5641
-74.381
-69.5462
-70.7269
-69.641
-70.8586
-69.4162
-70.746
-69.5672
-64.6434
-65.871
-64.7661
-65.9678
-64.5239
-65.9
-64.699
-59.6584
-60.8959
-59.764
-61.018
-59.5394
-60.9303
-59.6887
-54.6264
-55.8344
-54.7086
-55.9728
-54.5004
-55.8575
-54.6259
-49.6958
-50.8664
-49.7734
-51.0019
-49.5841
-50.8824
-49.6994
-44.8755
-46.0333
-44.9556
-46.1709
-44.7704
-46.0551
-44.8874
-40.0875
-41.2265
-40.159
-41.3691
-39.9889
-41.2493
-40.0916
-35.2829
-36.4182
-35.3445
-36.5866
-35.2019
-36.4428
-35.2848
-30.2986
-31.5077
-30.3823
-31.6952
-30.2216
-31.5465
-30.3304
-24.9546
-26.2855
-25.07
-26.4611
-24.8557
-26.3389
-25.0108
-19.2708
-20.6818
-19.3897
-20.8533
-19.1515
-20.7362
-19.3158
-13.4471
-14.86
-13.5492
-15.0438
-13.3266
-14.9088
-13.4711
-7.68062
-9.05579
-7.77406
-9.24785
-7.56928
-9.1057
-7.70174
-2.03579
-3.38406
-2.13925
-3.5822
-1.93709
-3.43725
-2.07405
-163.522
-163.353
-163.433
-163.966
-163.614
-163.088
-163.215
-163.584
-163.507
-163.524
-163.812
-163.619
-163.35
-163.42
-163.215
-163.253
-163.22
-163.324
-163.198
-163.183
-163.156
-162.74
-162.813
-162.756
-162.809
-162.702
-162.772
-162.701
-162.186
-162.272
-162.199
-162.253
-162.143
-162.244
-162.148
-161.534
-161.632
-161.543
-161.615
-161.491
-161.611
-161.492
-160.763
-160.875
-160.768
-160.864
-160.719
-160.861
-160.717
-159.852
-159.985
-159.856
-159.979
-159.807
-159.977
-159.804
-158.782
-158.938
-158.786
-158.935
-158.735
-158.935
-158.732
-157.549
-157.727
-157.552
-157.729
-157.499
-157.729
-157.495
-156.156
-156.354
-156.157
-156.361
-156.104
-156.359
-156.096
-154.629
-154.84
-154.626
-154.854
-154.575
-154.846
-154.56
-152.972
-153.199
-152.965
-153.221
-152.916
-153.207
-152.896
-151.148
-151.399
-151.14
-151.428
-151.09
-151.412
-151.068
-149.147
-149.424
-149.144
-149.451
-149.086
-149.444
-149.072
-147.01
-147.313
-147.013
-147.337
-146.946
-147.34
-146.941
-144.715
-145.043
-144.716
-145.071
-144.648
-145.074
-144.639
-142.23
-142.576
-142.227
-142.611
-142.158
-142.607
-142.143
-139.618
-139.979
-139.616
-140.013
-139.544
-140.011
-139.529
-136.915
-137.293
-136.914
-137.33
-136.84
-137.33
-136.826
-134.065
-134.464
-134.062
-134.507
-133.989
-134.505
-133.974
-131.033
-131.46
-131.032
-131.507
-130.953
-131.508
-130.94
-127.822
-128.272
-127.821
-128.32
-127.738
-128.322
-127.723
-124.47
-124.935
-124.467
-124.987
-124.383
-124.986
-124.365
-120.995
-121.483
-120.996
-121.535
-120.906
-121.54
-120.895
-117.377
-117.887
-117.379
-117.941
-117.286
-117.95
-117.276
-113.613
-114.139
-113.612
-114.198
-113.518
-114.203
-113.504
-109.736
-110.273
-109.734
-110.333
-109.638
-110.335
-109.62
-105.8
-106.344
-105.798
-106.406
-105.702
-106.409
-105.686
-101.797
-102.36
-101.798
-102.424
-101.701
-102.432
-101.688
-97.635
-98.221
-97.6345
-98.2914
-97.536
-98.2991
-97.5215
-93.2919
-93.8982
-93.2894
-93.9726
-93.1884
-93.9776
-93.1704
-88.8138
-89.4373
-88.8114
-89.5135
-88.7077
-89.5187
-88.6894
-84.2237
-84.8633
-84.2217
-84.9411
-84.1153
-84.9475
-84.0975
-79.5263
-80.178
-79.5226
-80.259
-79.4158
-80.2635
-79.3948
-74.7462
-75.4053
-74.7405
-75.4889
-74.6334
-75.4897
-74.6091
-69.9052
-70.5786
-69.9062
-70.6567
-69.7914
-70.6668
-69.7778
-65.0061
-65.6967
-65.0137
-65.7707
-64.8927
-65.7927
-64.8893
-60.0228
-60.7206
-60.0263
-60.8006
-59.9075
-60.8178
-59.8972
-54.9976
-55.6872
-54.9956
-55.7685
-54.879
-55.7765
-54.8598
-50.0568
-50.73
-50.0533
-50.8107
-49.941
-50.8152
-49.9204
-45.224
-45.8877
-45.2212
-45.9686
-45.1119
-45.9745
-45.0929
-40.4227
-41.0825
-40.4181
-41.1661
-40.3135
-41.1695
-40.2921
-35.5957
-36.263
-35.5877
-36.3562
-35.4911
-36.3547
-35.4655
-30.6083
-31.3097
-30.6039
-31.411
-30.5054
-31.4158
-30.4859
-25.2956
-26.0511
-25.2984
-26.1518
-25.1855
-26.1706
-25.1755
-19.6522
-20.4468
-19.6546
-20.5476
-19.5313
-20.5693
-19.5189
-13.8402
-14.6433
-13.8378
-14.7469
-13.7141
-14.7613
-13.6942
-8.05564
-8.84281
-8.05214
-8.94837
-7.93411
-8.95889
-7.91328
-2.39631
-3.16678
-2.39368
-3.27265
-2.28077
-3.28309
-2.26294
-163.556
-163.725
-163.571
-164.145
-163.713
-163.405
-163.788
-163.912
-163.86
-163.817
-164.092
-163.907
-163.781
-163.942
-163.409
-163.274
-163.393
-163.361
-163.397
-163.398
-163.282
-162.82
-162.717
-162.858
-162.766
-162.824
-162.862
-162.694
-162.223
-162.154
-162.287
-162.198
-162.237
-162.288
-162.122
-161.568
-161.518
-161.648
-161.57
-161.585
-161.648
-161.485
-160.81
-160.768
-160.902
-160.832
-160.828
-160.904
-160.735
-159.923
-159.88
-160.027
-159.959
-159.941
-160.033
-159.848
-158.88
-158.834
-158.996
-158.928
-158.897
-159.006
-158.801
-157.674
-157.623
-157.803
-157.734
-157.691
-157.818
-157.59
-156.303
-156.252
-156.445
-156.379
-156.32
-156.463
-156.218
-154.79
-154.743
-154.943
-154.884
-154.808
-154.964
-154.71
-153.155
-153.113
-153.318
-153.268
-153.172
-153.342
-153.081
-151.364
-151.319
-151.54
-151.495
-151.38
-151.57
-151.289
-149.389
-149.329
-149.579
-149.52
-149.405
-149.613
-149.295
-147.28
-147.205
-147.48
-147.406
-147.295
-147.518
-147.168
-145.015
-144.937
-145.228
-145.155
-145.029
-145.27
-144.9
-142.542
-142.468
-142.773
-142.703
-142.559
-142.818
-142.429
-139.939
-139.861
-140.181
-140.105
-139.957
-140.226
-139.818
-137.26
-137.177
-137.508
-137.429
-137.277
-137.556
-137.135
-134.441
-134.356
-134.699
-134.626
-134.456
-134.753
-134.317
-131.444
-131.348
-131.716
-131.639
-131.457
-131.776
-131.308
-128.25
-128.151
-128.539
-128.457
-128.265
-128.602
-128.108
-124.91
-124.812
-125.211
-125.13
-124.926
-125.275
-124.766
-121.465
-121.355
-121.774
-121.685
-121.479
-121.842
-121.309
-117.875
-117.756
-118.194
-118.1
-117.888
-118.268
-117.71
-114.125
-114.007
-114.458
-114.365
-114.139
-114.534
-113.959
-110.252
-110.136
-110.596
-110.504
-110.268
-110.672
-110.086
-106.323
-106.207
-106.671
-106.579
-106.34
-106.748
-106.156
-102.355
-102.23
-102.704
-102.61
-102.368
-102.786
-102.182
-98.2253
-98.0952
-98.5866
-98.4938
-98.2361
-98.6747
-98.048
-93.8982
-93.7674
-94.2766
-94.1832
-93.9109
-94.3674
-93.7179
-89.4356
-89.3017
-89.8251
-89.7292
-89.449
-89.9179
-89.2507
-84.8629
-84.7246
-85.2611
-85.1623
-84.8762
-85.3565
-84.6726
-80.1768
-80.0384
-80.5842
-80.4848
-80.1907
-80.6813
-79.9856
-75.3986
-75.2645
-75.8151
-75.7185
-75.4148
-75.9121
-75.2104
-70.5678
-70.4223
-70.9895
-70.8806
-70.5845
-71.0872
-70.3644
-65.6948
-65.5329
-66.1169
-65.994
-65.7084
-66.2182
-65.4742
-60.7236
-60.5651
-61.1531
-61.0375
-60.7363
-61.2581
-60.5083
-55.6702
-55.5233
-56.1097
-55.9972
-55.6891
-56.21
-55.4623
-50.7089
-50.5697
-51.1409
-51.0327
-50.7292
-51.2366
-50.5092
-45.8789
-45.7395
-46.2974
-46.1938
-45.8955
-46.3941
-45.6834
-41.0769
-40.9414
-41.4915
-41.3901
-41.093
-41.5878
-40.887
-36.2788
-36.1484
-36.6897
-36.602
-36.2904
-36.7902
-36.1009
-31.3603
-31.2163
-31.7755
-31.6951
-31.3627
-31.8892
-31.176
-26.1105
-25.9387
-26.552
-26.4518
-26.1096
-26.6782
-25.8947
-20.4886
-20.3058
-20.9644
-20.8492
-20.4927
-21.094
-20.2528
-14.6675
-14.4892
-15.1605
-15.0414
-14.677
-15.2878
-14.4311
-8.86998
-8.69626
-9.35629
-9.24029
-8.87873
-9.48195
-8.64033
-3.20508
-3.04153
-3.67578
-3.57074
-3.21055
-3.80082
-2.99249
-163.054
-162.667
-162.749
-162.932
-162.948
-162.772
-162.81
-163.111
-162.792
-162.866
-163.13
-163.053
-162.859
-162.878
-162.807
-162.769
-162.736
-162.903
-162.776
-162.788
-162.72
-162.393
-162.485
-162.395
-162.515
-162.37
-162.49
-162.368
-161.89
-162.037
-161.91
-162.038
-161.866
-162.042
-161.881
-161.269
-161.448
-161.289
-161.444
-161.24
-161.455
-161.255
-160.515
-160.725
-160.534
-160.724
-160.482
-160.735
-160.496
-159.61
-159.861
-159.627
-159.861
-159.571
-159.874
-159.585
-158.542
-158.834
-158.56
-158.837
-158.499
-158.852
-158.514
-157.308
-157.645
-157.324
-157.648
-157.261
-157.666
-157.274
-155.913
-156.284
-155.914
-156.297
-155.861
-156.311
-155.862
-154.384
-154.768
-154.363
-154.801
-154.327
-154.8
-154.31
-152.736
-153.124
-152.697
-153.184
-152.672
-153.162
-152.64
-150.911
-151.334
-150.878
-151.419
-150.843
-151.379
-150.816
-148.888
-149.389
-148.894
-149.458
-148.821
-149.438
-148.827
-146.735
-147.312
-146.762
-147.347
-146.666
-147.36
-146.689
-144.431
-145.058
-144.441
-145.096
-144.355
-145.108
-144.364
-141.928
-142.579
-141.918
-142.644
-141.848
-142.637
-141.841
-139.303
-139.971
-139.308
-140.045
-139.223
-140.034
-139.227
-136.611
-137.305
-136.615
-137.368
-136.524
-137.369
-136.529
-133.77
-134.494
-133.765
-134.572
-133.677
-134.564
-133.674
-130.72
-131.514
-130.731
-131.592
-130.625
-131.587
-130.635
-127.486
-128.335
-127.483
-128.411
-127.387
-128.411
-127.385
-124.127
-124.978
-124.125
-125.08
-124.025
-125.062
-124.023
-120.654
-121.556
-120.678
-121.642
-120.549
-121.641
-120.57
-117.027
-117.996
-117.048
-118.065
-116.918
-118.082
-116.938
-113.252
-114.247
-113.256
-114.331
-113.139
-114.337
-113.144
-109.363
-110.365
-109.352
-110.468
-109.249
-110.461
-109.241
-105.433
-106.427
-105.437
-106.542
-105.318
-106.528
-105.323
-101.442
-102.484
-101.465
-102.58
-101.323
-102.583
-101.344
-97.2738
-98.3812
-97.2812
-98.4715
-97.1486
-98.4819
-97.1575
-92.9155
-94.0513
-92.9097
-94.1605
-92.7866
-94.1589
-92.7844
-88.4298
-89.5919
-88.4262
-89.7078
-88.2982
-89.7035
-88.2978
-83.8343
-85.0285
-83.8334
-85.1441
-83.7
-85.1426
-83.7016
-79.1302
-80.3461
-79.1165
-80.4705
-78.9925
-80.4637
-78.9835
-74.3384
-75.551
-74.3177
-75.6978
-74.1982
-75.6741
-74.1835
-69.484
-70.7231
-69.5201
-70.8532
-69.3462
-70.8481
-69.3783
-64.6091
-65.8921
-64.6593
-65.967
-64.467
-66.0131
-64.513
-59.6279
-60.9345
-59.6337
-61.0217
-59.4813
-61.058
-59.4914
-54.5802
-55.8448
-54.5638
-55.9708
-54.4362
-55.9761
-54.4267
-49.6739
-50.8564
-49.6547
-50.9929
-49.5304
-50.9892
-49.5189
-44.8622
-46.0385
-44.8514
-46.1689
-44.7195
-46.1671
-44.7147
-40.0783
-41.2357
-40.053
-41.3694
-39.9334
-41.3651
-39.9164
-35.2982
-36.4264
-35.2563
-36.587
-35.1455
-36.5593
-35.1153
-30.3264
-31.5442
-30.3126
-31.7069
-30.1661
-31.6784
-30.1593
-24.9549
-26.3571
-24.9802
-26.4884
-24.7923
-26.4934
-24.8173
-19.2485
-20.7583
-19.2648
-20.8809
-19.0857
-20.901
-19.1034
-13.4233
-14.9243
-13.4173
-15.0734
-13.2631
-15.0754
-13.2622
-7.66365
-9.12486
-7.65616
-9.28607
-7.50841
-9.27814
-7.506
-2.04085
-3.46642
-2.0365
-3.62438
-1.89507
-3.61862
-1.89591
-163.377
-163.636
-163.669
-163.732
-163.513
-163.64
-163.721
-163.666
-164.223
-163.64
-163.317
-163.575
-163.536
-163.876
-163.473
-163.811
-163.576
-163.568
-163.739
-163.389
-163.805
-163.715
-163.613
-163.731
-163.565
-163.712
-163.752
-163.663
-163.939
-164.126
-163.747
-163.596
-163.814
-163.704
-163.968
-163.708
-163.559
-163.475
-163.523
-163.738
-163.501
-163.669
-163.262
-163.14
-163.247
-163.078
-163.256
-163.25
-163.139
-163.387
-163.355
-163.153
-163.214
-163.38
-163.222
-163.269
-163.224
-163.049
-163.004
-163.06
-163.206
-163.074
-163.117
-162.707
-162.631
-162.692
-162.565
-162.713
-162.677
-162.611
-162.786
-162.746
-162.61
-162.718
-162.831
-162.687
-162.671
-162.664
-162.533
-162.512
-162.54
-162.63
-162.566
-162.584
-162.118
-162.082
-162.101
-162.012
-162.131
-162.076
-162.059
-162.191
-162.176
-162.068
-162.178
-162.257
-162.131
-162.101
-162.079
-161.983
-161.981
-161.975
-162.033
-162.01
-162.034
-161.454
-161.444
-161.428
-161.366
-161.471
-161.398
-161.423
-161.539
-161.55
-161.447
-161.557
-161.621
-161.499
-161.467
-161.419
-161.34
-161.354
-161.318
-161.358
-161.364
-161.4
-160.682
-160.686
-160.644
-160.597
-160.698
-160.61
-160.668
-160.785
-160.815
-160.708
-160.825
-160.881
-160.756
-160.719
-160.649
-160.572
-160.601
-160.542
-160.573
-160.6
-160.646
-159.772
-159.784
-159.72
-159.681
-159.788
-159.682
-159.769
-159.901
-159.944
-159.827
-159.959
-160.013
-159.877
-159.833
-159.74
-159.657
-159.702
-159.62
-159.645
-159.692
-159.747
-158.704
-158.722
-158.637
-158.605
-158.719
-158.597
-158.71
-158.86
-158.914
-158.787
-158.935
-158.989
-158.84
-158.788
-158.672
-158.581
-158.641
-158.54
-158.56
-158.625
-158.688
-157.471
-157.496
-157.389
-157.363
-157.485
-157.346
-157.485
-157.656
-157.722
-157.582
-157.749
-157.803
-157.64
-157.579
-157.44
-157.339
-157.415
-157.292
-157.308
-157.392
-157.464
-156.075
-156.109
-155.982
-155.963
-156.089
-155.934
-156.1
-156.286
-156.368
-156.216
-156.397
-156.451
-156.275
-156.208
-156.043
-155.939
-156.027
-155.884
-155.896
-155.996
-156.079
-154.542
-154.588
-154.44
-154.431
-154.558
-154.389
-154.581
-154.775
-154.874
-154.711
-154.9
-154.953
-154.767
-154.7
-154.511
-154.407
-154.506
-154.342
-154.35
-154.464
-154.56
-152.887
-152.943
-152.771
-152.775
-152.901
-152.718
-152.941
-153.142
-153.26
-153.087
-153.282
-153.334
-153.139
-153.073
-152.857
-152.752
-152.865
-152.679
-152.68
-152.813
-152.921
-151.067
-151.131
-150.932
-150.943
-151.08
-150.875
-151.132
-151.354
-151.49
-151.304
-151.516
-151.566
-151.358
-151.284
-151.038
-150.92
-151.053
-150.84
-150.838
-150.992
-151.112
-149.068
-149.126
-148.922
-148.923
-149.081
-148.863
-149.126
-149.381
-149.517
-149.319
-149.56
-149.612
-149.387
-149.292
-149.037
-148.897
-149.04
-148.822
-148.823
-148.985
-149.104
-146.935
-146.987
-146.776
-146.769
-146.947
-146.715
-146.987
-147.273
-147.403
-147.193
-147.459
-147.517
-147.276
-147.164
-146.902
-146.742
-146.895
-146.669
-146.672
-146.844
-146.963
-144.638
-144.7
-144.461
-144.462
-144.649
-144.394
-144.702
-145.009
-145.153
-144.93
-145.213
-145.272
-145.015
-144.897
-144.603
-144.434
-144.605
-144.35
-144.349
-144.543
-144.678
-142.139
-142.214
-141.954
-141.961
-142.153
-141.88
-142.217
-142.536
-142.702
-142.463
-142.761
-142.82
-142.548
-142.426
-142.102
-141.932
-142.114
-141.836
-141.833
-142.041
-142.191
-139.523
-139.598
-139.333
-139.337
-139.538
-139.258
-139.6
-139.931
-140.103
-139.854
-140.165
-140.227
-139.943
-139.816
-139.485
-139.307
-139.494
-139.211
-139.209
-139.422
-139.573
-136.828
-136.904
-136.624
-136.634
-136.841
-136.548
-136.909
-137.254
-137.428
-137.171
-137.493
-137.559
-137.265
-137.133
-136.791
-136.605
-136.804
-136.507
-136.5
-136.729
-136.883
-133.985
-134.068
-133.764
-133.784
-133.996
-133.687
-134.078
-134.439
-134.627
-134.361
-134.697
-134.76
-134.455
-134.317
-133.951
-133.755
-133.972
-133.653
-133.64
-133.889
-134.053
-130.954
-131.039
-130.715
-130.733
-130.964
-130.633
-131.05
-131.443
-131.642
-131.36
-131.722
-131.786
-131.464
-131.31
-130.917
-130.703
-130.936
-130.596
-130.584
-130.85
-131.023
-127.732
-127.825
-127.483
-127.503
-127.744
-127.395
-127.835
-128.25
-128.461
-128.163
-128.546
-128.613
-128.273
-128.11
-127.692
-127.471
-127.714
-127.355
-127.342
-127.621
-127.806
-124.375
-124.474
-124.119
-124.142
-124.388
-124.028
-124.485
-124.909
-125.133
-124.824
-125.216
-125.285
-124.933
-124.768
-124.335
-124.109
-124.362
-123.989
-123.974
-124.263
-124.456
-120.91
-121.005
-120.639
-120.658
-120.92
-120.547
-121.017
-121.466
-121.689
-121.371
-121.784
-121.855
-121.49
-121.312
-120.871
-120.626
-120.892
-120.511
-120.494
-120.797
-120.988
-117.293
-117.39
-117.008
-117.029
-117.303
-116.913
-117.404
-117.878
-118.106
-117.778
-118.211
-118.284
-117.905
-117.714
-117.253
-116.995
-117.275
-116.876
-116.858
-117.176
-117.374
-113.521
-113.627
-113.227
-113.253
-113.532
-113.127
-113.642
-114.129
-114.372
-114.031
-114.478
-114.551
-114.159
-113.964
-113.479
-113.219
-113.509
-113.091
-113.07
-113.402
-113.611
-109.634
-109.748
-109.337
-109.367
-109.648
-109.234
-109.762
-110.255
-110.511
-110.16
-110.615
-110.689
-110.288
-110.091
-109.59
-109.331
-109.626
-109.197
-109.175
-109.513
-109.731
-105.703
-105.815
-105.401
-105.431
-105.715
-105.299
-105.83
-106.326
-106.586
-106.231
-106.69
-106.764
-106.359
-106.162
-105.66
-105.396
-105.695
-105.265
-105.242
-105.583
-105.799
-101.716
-101.826
-101.397
-101.43
-101.724
-101.295
-101.846
-102.362
-102.619
-102.261
-102.731
-102.806
-102.396
-102.189
-101.676
-101.396
-101.71
-101.265
-101.239