/*--------------------------------*- C++ -*----------------------------------*\
| =========                 |                                                 |
| \\      /  F ield         | OpenFOAM: The Open Source CFD Toolbox           |
|  \\    /   O peration     | Version:  4.1                                   |
|   \\  /    A nd           | Web:      www.OpenFOAM.org                      |
|    \\/     M anipulation  |                                                 |
\*---------------------------------------------------------------------------*/
FoamFile
{
    version     2.0;
    format      ascii;
    class       volVectorField;
    location    "2";
    object      wallShearStress;
}
// * * * * * * * * * * * * * * * * * * * * * * * * * * * * * * * * * * * * * //

dimensions      [0 2 -2 0 0 0 0];

internalField   uniform (0 0 0);

boundaryField
{
    inlet
    {
        type            calculated;
        value           uniform (0 0 0);
    }
    outlet
    {
        type            calculated;
        value           uniform (0 0 0);
    }
    side1
    {
        type            cyclicAMI;
        value           uniform (0 0 0);
    }
    side2
    {
        type            cyclicAMI;
        value           uniform (0 0 0);
    }
    walls
    {
        type            calculated;
        value           nonuniform List<vector> 
400
(
(-0.0042966 -0.0025705 -0.00220774)
(-0.00445028 -0.00282643 -0.000981425)
(-0.00418237 -0.00320785 -0.000225374)
(-0.00414672 -0.00317144 0.00102291)
(-0.0039411 -0.00248291 0.00193792)
(-0.00536118 -0.00174802 -0.00123298)
(-0.00472587 -0.00140147 -0.000389056)
(-0.00467247 -0.0017202 -0.000177524)
(-0.00468464 -0.00184171 0.000517185)
(-0.00473851 -0.00136083 0.00118589)
(-0.00511668 -0.000773043 -0.000475377)
(-0.0046167 -0.000536179 -7.48719e-05)
(-0.00457879 -0.000669297 -6.61755e-05)
(-0.00458641 -0.000793694 0.000210438)
(-0.00462957 -0.000581731 0.000567485)
(-0.00496671 -0.000328388 -0.000198898)
(-0.00440766 -0.000199474 3.12049e-05)
(-0.00436592 -0.000233492 8.0604e-06)
(-0.00439421 -0.000315867 0.000108021)
(-0.00448711 -0.000239224 0.000280742)
(-0.00497018 -0.000145868 -9.85955e-05)
(-0.00428206 -7.51136e-05 6.04572e-05)
(-0.00418874 -7.46708e-05 4.37066e-05)
(-0.00422223 -0.000120193 7.95691e-05)
(-0.00438959 -9.26283e-05 0.000160528)
(-0.00503416 -7.80733e-05 -6.12288e-05)
(-0.00423004 -3.20482e-05 6.6835e-05)
(-0.00407362 -1.89109e-05 5.92686e-05)
(-0.00410105 -4.05335e-05 7.25329e-05)
(-0.00433996 -2.71369e-05 0.000107166)
(-0.0051329 -5.04211e-05 -5.13357e-05)
(-0.00421468 -1.44896e-05 6.18896e-05)
(-0.00401235 6.01882e-06 6.48009e-05)
(-0.00402214 -3.43459e-06 7.10341e-05)
(-0.00430892 2.35216e-06 8.42601e-05)
(-0.00526494 -4.21449e-05 -5.38657e-05)
(-0.00427989 -1.34554e-05 5.96368e-05)
(-0.0039719 1.73755e-05 5.0587e-05)
(-0.00396557 2.2168e-05 6.98759e-05)
(-0.00431175 1.74619e-05 7.3213e-05)
(-0.00542438 -4.09891e-05 -6.14012e-05)
(-0.00429804 -1.50736e-05 5.99572e-05)
(-0.00409292 2.13871e-05 3.57755e-05)
(-0.00391664 3.76306e-05 7.00512e-05)
(-0.00433541 2.46081e-05 6.83176e-05)
(-0.00559406 -4.45434e-05 -7.25434e-05)
(-0.00437058 -7.69411e-07 4.66141e-05)
(-0.00420585 2.63406e-05 4.91704e-05)
(-0.00387531 3.25931e-05 7.1124e-05)
(-0.00434519 2.3916e-05 6.85014e-05)
(-0.00577696 -4.60516e-05 -8.09045e-05)
(-0.00452809 7.89798e-06 5.06706e-05)
(-0.00421793 1.78824e-05 8.52953e-05)
(-0.00386552 7.65309e-06 7.50552e-05)
(-0.00439825 2.15481e-05 6.93671e-05)
(-0.00598351 -4.11892e-05 -8.27143e-05)
(-0.00462876 -7.27115e-06 7.92739e-05)
(-0.0040975 -1.02547e-05 9.03603e-05)
(-0.00389997 -6.38771e-06 8.12457e-05)
(-0.00447779 2.60968e-05 6.55286e-05)
(-0.00621792 -3.27094e-05 -7.88945e-05)
(-0.00459586 -3.54218e-05 0.000104547)
(-0.00414157 -5.03145e-05 4.51749e-05)
(-0.00389906 -2.12284e-05 5.97042e-05)
(-0.00453869 2.77243e-05 3.79383e-05)
(-0.00642099 -3.26516e-05 -8.22183e-05)
(-0.00447479 -2.02767e-05 0.000103103)
(-0.00434619 -5.3695e-05 7.76898e-05)
(-0.00411448 -5.6437e-05 3.07626e-05)
(-0.00473802 1.40262e-05 1.69048e-05)
(-0.00660748 -5.54825e-05 -0.000113391)
(-0.00451345 3.67413e-05 6.42963e-05)
(-0.0041054 1.42132e-05 0.000157613)
(-0.00436364 -2.7499e-05 8.2476e-05)
(-0.00494028 2.84842e-06 5.56433e-05)
(-0.00683134 -7.961e-05 -0.000147035)
(-0.00479836 2.4844e-05 2.92043e-05)
(-0.00376645 7.12384e-05 8.84718e-05)
(-0.00413193 4.02501e-05 0.000102742)
(-0.00499766 1.55907e-05 7.64234e-05)
(-0.00704666 -8.39107e-05 -0.000157091)
(-0.00499445 -2.14778e-05 3.83856e-05)
(-0.00406532 1.73138e-05 -6.24137e-06)
(-0.00409296 4.50521e-05 3.1213e-05)
(-0.00506175 3.80125e-05 4.83532e-05)
(-0.00722806 -8.09095e-05 -0.000163904)
(-0.00501622 -2.10825e-05 9.91134e-05)
(-0.00434031 -1.10631e-05 7.44992e-05)
(-0.00436562 9.13512e-06 7.65358e-05)
(-0.00510954 2.75694e-05 5.47075e-05)
(-0.00747871 -8.49186e-05 -0.000180873)
(-0.00489252 -7.20113e-06 0.000109599)
(-0.00402588 5.33445e-06 0.000120589)
(-0.00409452 1.82623e-05 0.000115366)
(-0.00525316 3.42263e-05 8.46986e-05)
(-0.0077678 -9.07153e-05 -0.000197166)
(-0.00500374 -2.50886e-05 7.08546e-05)
(-0.00409309 -1.08313e-05 3.96292e-05)
(-0.00415739 2.23041e-05 2.00492e-05)
(-0.00515876 6.06009e-05 7.20474e-05)
(-0.00801284 -9.42017e-05 -0.000204559)
(-0.00498344 -2.52655e-05 7.94774e-05)
(-0.0043045 -1.66875e-05 4.36647e-05)
(-0.00446024 2.46577e-06 3.44285e-05)
(-0.00518832 3.28077e-05 4.15904e-05)
(-0.00820315 -0.000112809 -0.000229482)
(-0.00495709 2.73572e-06 4.77737e-05)
(-0.00422175 2.36187e-05 7.23721e-05)
(-0.00437253 1.92616e-05 8.7544e-05)
(-0.00536928 1.6205e-05 5.23253e-05)
(-0.00839282 -0.000123734 -0.000254499)
(-0.0052873 -1.76177e-05 8.41681e-05)
(-0.00429265 5.10806e-06 6.63175e-05)
(-0.00432272 2.41245e-05 8.4227e-05)
(-0.00538712 3.41763e-05 6.79682e-05)
(-0.00864234 -0.000117361 -0.000261974)
(-0.00495827 -3.31287e-05 0.000140559)
(-0.0042945 -1.8745e-05 7.82072e-05)
(-0.00430937 9.43409e-06 8.61425e-05)
(-0.00545459 3.46702e-05 6.73489e-05)
(-0.00890145 -0.000139512 -0.000293477)
(-0.00492604 1.50758e-05 4.6366e-05)
(-0.00429383 3.78758e-05 8.6284e-05)
(-0.00429248 2.69397e-05 7.972e-05)
(-0.00549168 2.78635e-05 7.61254e-05)
(-0.00911375 -0.00016274 -0.000325946)
(-0.00532789 2.68959e-05 2.12299e-05)
(-0.00422271 6.02093e-05 9.21347e-05)
(-0.00423905 3.50123e-05 7.98507e-05)
(-0.00551827 2.4878e-05 8.04493e-05)
(-0.0093237 -0.000163676 -0.000338712)
(-0.00540726 4.78014e-06 6.88596e-05)
(-0.00414878 2.99269e-05 8.37458e-05)
(-0.00417361 2.21981e-05 8.46798e-05)
(-0.00554404 2.37635e-05 7.59193e-05)
(-0.00954546 -0.000161638 -0.000347283)
(-0.00550243 -1.23154e-05 0.000140858)
(-0.00418162 2.14362e-05 8.63861e-05)
(-0.00419783 2.94194e-05 0.000178064)
(-0.00562286 -2.40581e-07 8.44641e-05)
(-0.00984447 -0.000160625 -0.000357069)
(-0.0051612 -9.65788e-06 0.000153032)
(-0.00416922 3.62062e-05 8.99809e-05)
(-0.00354426 4.72981e-05 0.000227857)
(-0.00578416 -4.08208e-06 9.11125e-05)
(-0.0101378 -0.000177795 -0.000381657)
(-0.00521492 1.18502e-05 2.04795e-05)
(-0.00417704 2.70245e-05 7.66884e-05)
(-0.00318371 2.008e-05 2.22366e-05)
(-0.00586701 4.50943e-05 6.8319e-05)
(-0.0103154 -0.000194012 -0.0004085)
(-0.00563753 -1.41048e-06 1.30283e-05)
(-0.00412148 -1.06862e-05 8.63375e-05)
(-0.003853 -7.2519e-06 -5.88937e-05)
(-0.00577454 7.52274e-05 5.55564e-05)
(-0.0104825 -0.000196646 -0.000427249)
(-0.00555686 -1.94762e-05 9.28434e-05)
(-0.00393979 -1.77647e-05 9.3309e-05)
(-0.00396069 4.76269e-06 4.95487e-05)
(-0.00569491 5.18097e-05 6.70544e-05)
(-0.0106895 -0.000204501 -0.000448477)
(-0.00547812 -1.36673e-05 9.48286e-05)
(-0.00387621 -1.2191e-06 8.55648e-05)
(-0.00389342 1.26072e-05 8.23551e-05)
(-0.00569258 3.52408e-05 7.14027e-05)
(-0.0108985 -0.000215785 -0.000471891)
(-0.00546543 -3.45656e-06 7.2946e-05)
(-0.00380365 1.0982e-05 8.36803e-05)
(-0.00383861 1.43864e-05 7.97311e-05)
(-0.00569288 2.94298e-05 6.92311e-05)
(-0.0111036 -0.000218421 -0.000485734)
(-0.00556311 -1.8375e-05 9.89463e-05)
(-0.00375104 -1.48866e-05 6.87433e-05)
(-0.00379311 6.85576e-07 7.47228e-05)
(-0.00572108 3.13887e-05 6.52626e-05)
(-0.0113253 -0.000207874 -0.000487937)
(-0.00537509 -6.82704e-05 0.000197298)
(-0.00376667 -6.75362e-05 5.8664e-05)
(-0.00378026 -6.12844e-06 7.78024e-05)
(-0.00573803 4.51504e-05 5.97486e-05)
(-0.0115964 -0.000231411 -0.00053315)
(-0.00471534 -4.60413e-05 0.000131124)
(-0.00381814 6.73896e-06 9.00164e-05)
(-0.0038001 7.73968e-05 6.14628e-05)
(-0.00582403 0.000113182 0.000139499)
(-0.0119119 -0.000274575 -0.000598766)
(-0.00504367 4.69404e-05 -5.39092e-05)
(-0.00373279 0.000126892 0.000106301)
(-0.00378745 0.000117826 4.75842e-05)
(-0.00511041 9.9767e-05 0.000161119)
(-0.0121017 -0.000279418 -0.000600652)
(-0.00574724 3.4834e-05 1.63517e-05)
(-0.00361423 0.000100499 7.34599e-05)
(-0.00372762 6.57682e-05 0.000109793)
(-0.0051373 5.2547e-06 8.95147e-05)
(-0.0122983 -0.000253286 -0.000594674)
(-0.00561474 1.52573e-05 0.000215885)
(-0.00381333 4.46703e-05 0.000190367)
(-0.0034686 3.003e-05 0.000257552)
(-0.00528742 6.74815e-06 0.000170785)
(-0.0127437 -0.000229724 -0.000586171)
(-0.00521255 8.55435e-05 0.000200466)
(-0.00305192 6.9466e-05 0.000327708)
(-0.00270774 -3.57572e-05 0.000322211)
(-0.00499202 -4.81567e-05 0.000172472)
(-0.0130994 -0.000233423 -0.000579212)
(-0.00554331 7.52844e-05 8.08581e-05)
(-0.00228375 6.3593e-05 0.00018446)
(-0.00219761 -3.96765e-05 0.000183028)
(-0.00552468 -4.66324e-05 9.24431e-05)
(-0.013405 -0.00022172 -0.000580823)
(-0.00570125 -1.17735e-05 0.000135022)
(-0.0024211 -3.53129e-05 0.000106399)
(-0.00221606 -1.48889e-05 9.75668e-05)
(-0.00545954 3.92259e-05 0.000100552)
(-0.013734 -0.000194628 -0.00055491)
(-0.00516098 -7.9005e-05 0.000148078)
(-0.00191097 -0.000155513 4.09993e-05)
(-0.00195721 -8.3827e-05 -1.69321e-05)
(-0.00527359 3.6501e-05 -1.28661e-05)
(-0.0138326 -0.000222089 -0.00056967)
(-0.00476724 -8.61453e-05 -4.01693e-05)
(-0.0021801 -0.000127189 -0.000143867)
(-0.00267595 -6.86832e-05 -0.000178679)
(-0.00560483 1.03731e-05 -0.000142132)
(-0.013655 -0.000304542 -0.000661032)
(-0.0051539 -1.94247e-05 -0.000146966)
(-0.00282891 3.61479e-05 -0.000109562)
(-0.00325788 4.72172e-05 -7.53566e-05)
(-0.0059291 1.64842e-05 -6.49047e-05)
(-0.0135073 -0.000347528 -0.000737335)
(-0.00561627 2.41637e-05 -2.85326e-05)
(-0.00288271 9.07128e-05 2.28897e-05)
(-0.00293725 5.55553e-05 5.01776e-05)
(-0.0057816 1.01074e-05 5.22572e-05)
(-0.0135578 -0.00033783 -0.000752531)
(-0.00558538 9.82368e-05 9.44322e-05)
(-0.00285498 9.95396e-05 0.000210391)
(-0.00292632 -2.61722e-05 0.000228974)
(-0.0057847 -8.66568e-05 9.20833e-05)
(-0.0137666 -0.000321831 -0.000748965)
(-0.00571521 0.000121406 8.50631e-05)
(-0.0017138 9.25866e-05 0.000215703)
(-0.00175899 -5.15665e-05 0.00025614)
(-0.00612355 -0.00010061 9.68514e-05)
(-0.0140259 -0.000295529 -0.000723419)
(-0.00573272 1.41422e-05 9.06442e-06)
(-0.00154237 1.17321e-05 3.05802e-05)
(-0.00157342 -1.68449e-05 4.70592e-05)
(-0.00612747 -4.40907e-06 2.22174e-05)
(-0.00483216 -0.00257094 -0.00205975)
(-0.00471363 -0.00284212 -0.00182396)
(-0.00414602 -0.00302055 -0.00180237)
(-0.00522605 -0.0012762 -0.00078791)
(-0.00494588 -0.00132615 -0.000764404)
(-0.00502006 -0.00190196 -0.00108852)
(-0.00502385 -0.000521454 -0.000269215)
(-0.00483653 -0.000546576 -0.000265799)
(-0.00492729 -0.000785643 -0.000412835)
(-0.00494098 -0.00021406 -9.21193e-05)
(-0.00479291 -0.000249322 -9.27476e-05)
(-0.00482864 -0.000304887 -0.000145261)
(-0.0049766 -9.20303e-05 -2.15575e-05)
(-0.00483667 -0.000129035 -3.34658e-05)
(-0.00482281 -0.000109009 -5.00382e-05)
(-0.00504921 -3.93117e-05 1.38066e-05)
(-0.00492744 -8.79148e-05 -1.05905e-05)
(-0.00490462 -3.32684e-05 -1.65853e-05)
(-0.0051569 -1.55556e-05 3.37597e-05)
(-0.00503964 -7.55036e-05 -1.29648e-06)
(-0.00500508 4.71201e-06 -9.90776e-07)
(-0.00529524 -2.52423e-06 4.83858e-05)
(-0.00517367 -7.67411e-05 1.06283e-06)
(-0.00513021 2.60138e-05 5.49321e-06)
(-0.00545982 4.55935e-06 6.05032e-05)
(-0.00533198 -8.48823e-05 1.37284e-06)
(-0.00528135 4.09317e-05 7.96205e-06)
(-0.00563316 1.05633e-05 7.22545e-05)
(-0.00549569 -9.50713e-05 1.7271e-06)
(-0.00544271 5.36008e-05 1.06808e-05)
(-0.00582571 2.12587e-05 8.88845e-05)
(-0.00567067 -9.79083e-05 3.74294e-06)
(-0.0056075 7.18035e-05 1.59303e-05)
(-0.00604392 3.47825e-05 0.000108936)
(-0.00588074 -9.53143e-05 7.41062e-06)
(-0.00580388 9.56723e-05 2.06695e-05)
(-0.00626937 4.82497e-05 0.000134378)
(-0.00611007 -9.68832e-05 1.24419e-05)
(-0.00603696 0.000119954 2.49664e-05)
(-0.00646334 5.58463e-05 0.00015099)
(-0.00633849 -0.000112108 1.31841e-05)
(-0.00626908 0.000144007 3.07705e-05)
(-0.00666129 4.38575e-05 0.000142056)
(-0.00655543 -0.000147993 6.09397e-06)
(-0.00648054 0.000145414 3.00763e-05)
(-0.00688502 3.71278e-05 0.000142706)
(-0.00674695 -0.000183779 -4.7316e-06)
(-0.00668467 0.000134933 2.28606e-05)
(-0.00707662 5.56297e-05 0.0001719)
(-0.00690922 -0.000198832 -8.54103e-06)
(-0.00686584 0.000151999 2.56184e-05)
(-0.00728012 7.37711e-05 0.000196182)
(-0.00711998 -0.000194538 -5.52562e-06)
(-0.00704104 0.000192819 3.42744e-05)
(-0.00756165 7.04562e-05 0.000198871)
(-0.0074153 -0.000212738 -5.18066e-06)
(-0.00730875 0.000207773 3.24066e-05)
(-0.00782474 7.46399e-05 0.000216314)
(-0.00766088 -0.000235944 -6.89993e-06)
(-0.00758628 0.000209055 2.89827e-05)
(-0.00804972 8.5924e-05 0.000246814)
(-0.00787675 -0.000250646 -3.96238e-06)
(-0.0078159 0.000235366 3.53345e-05)
(-0.00823484 8.86711e-05 0.000258598)
(-0.00807311 -0.000287311 -9.25626e-06)
(-0.0080268 0.000252896 3.9437e-05)
(-0.00844291 0.000106565 0.000282128)
(-0.00824701 -0.000298433 -1.51917e-05)
(-0.00818432 0.000277668 4.44466e-05)
(-0.00870782 0.000113616 0.000300318)
(-0.00854432 -0.000307435 -1.21359e-05)
(-0.00844395 0.000313258 4.40316e-05)
(-0.00894761 0.000102411 0.000302694)
(-0.00878724 -0.000355428 -1.73319e-05)
(-0.00872456 0.000308405 4.10682e-05)
(-0.00914992 0.000112359 0.000322323)
(-0.00893761 -0.000383098 -2.56123e-05)
(-0.00889407 0.000317088 4.44825e-05)
(-0.00937147 0.000132455 0.00035233)
(-0.00914476 -0.000387512 -2.47437e-05)
(-0.00908029 0.000354017 5.04315e-05)
(-0.00962531 0.000147674 0.000374277)
(-0.00939964 -0.000381651 -2.31974e-05)
(-0.0092959 0.000392314 5.64288e-05)
(-0.00993401 0.000140536 0.000379104)
(-0.00974224 -0.000403801 -2.06822e-05)
(-0.00962334 0.000408137 5.20799e-05)
(-0.0101697 0.000139902 0.000393373)
(-0.00996225 -0.000457439 -2.65278e-05)
(-0.00992006 0.000397166 5.00072e-05)
(-0.0103187 0.000165605 0.000431271)
(-0.0100636 -0.000480993 -3.33526e-05)
(-0.0100512 0.000419206 5.89268e-05)
(-0.0105167 0.000183795 0.000461674)
(-0.0102601 -0.000485565 -3.27072e-05)
(-0.0102031 0.000467783 6.48267e-05)
(-0.0107341 0.000189241 0.000479819)
(-0.0104849 -0.000507994 -3.40607e-05)
(-0.01042 0.000492767 6.62984e-05)
(-0.0109355 0.000195775 0.000496942)
(-0.0106787 -0.000534036 -3.70725e-05)
(-0.0106297 0.000509978 6.73762e-05)
(-0.0111508 0.000214757 0.00052643)
(-0.0108737 -0.000542119 -3.69839e-05)
(-0.010818 0.00054215 7.36106e-05)
(-0.0113867 0.000230353 0.000551426)
(-0.01114 -0.000541148 -3.62949e-05)
(-0.0110421 0.000584491 7.58554e-05)
(-0.0116717 0.000192684 0.000516419)
(-0.0114796 -0.000613463 -4.95689e-05)
(-0.0113763 0.000562233 5.46913e-05)
(-0.0119588 0.000167561 0.000516007)
(-0.0116705 -0.000671503 -5.54381e-05)
(-0.0116312 0.000511686 3.81386e-05)
(-0.0121258 0.000209422 0.00057094)
(-0.0117762 -0.000646907 -5.32941e-05)
(-0.0117395 0.000561935 5.83666e-05)
(-0.0124396 0.000230828 0.000581231)
(-0.0121125 -0.000597274 -4.23348e-05)
(-0.0119445 0.000631315 6.63414e-05)
(-0.0129156 0.000212788 0.000581669)
(-0.0125917 -0.000581588 -1.95277e-05)
(-0.0123972 0.00063352 5.80331e-05)
(-0.0131947 0.00021363 0.000583962)
(-0.0128805 -0.000603721 -2.46344e-05)
(-0.0127759 0.000618961 5.87373e-05)
(-0.0135024 0.000228931 0.000605804)
(-0.0131614 -0.00059944 -2.20987e-05)
(-0.013054 0.000630893 5.44927e-05)
(-0.0137519 0.000247505 0.000662127)
(-0.0134388 -0.000605517 -4.69002e-06)
(-0.0133902 0.000667274 5.88716e-05)
(-0.0136951 0.000253618 0.000705312)
(-0.0134332 -0.000701597 -1.64613e-05)
(-0.0135553 0.000679338 6.97138e-05)
(-0.0134975 0.000257708 0.000712356)
(-0.0132132 -0.000818105 -5.69784e-05)
(-0.0133881 0.000683522 7.84156e-05)
(-0.0134661 0.000283918 0.00072653)
(-0.0131296 -0.000834591 -7.80312e-05)
(-0.013183 0.000735708 8.73107e-05)
(-0.0136319 0.000301284 0.0007339)
(-0.0132966 -0.000783337 -6.8965e-05)
(-0.0132092 0.000809382 9.66997e-05)
(-0.0138877 0.000298959 0.000716897)
(-0.0135626 -0.000755262 -6.62016e-05)
(-0.013436 0.000825991 9.13286e-05)
(-0.0140798 0.000319315 0.000728157)
(-0.0137521 -0.000781737 -8.8086e-05)
(-0.0136995 0.000786278 6.89535e-05)
)
;
    }
}


// ************************************************************************* //
