# vtk DataFile Version 4.0
vtk output
ASCII
DATASET UNSTRUCTURED_GRID
POINTS 3 float
0.00000000e+00 0.00000000e+00 2.00000000e+00 
1.00000000e+00 0.00000000e+00 2.00000000e+00 
1.00000000e+00 1.00000000e+00 2.00000000e+00 

CELLS 2 8
3 9 10 11
3 7 8 9

CELL_TYPES 2
5
5
POINT_DATA 3
FIELD FieldData 4
PRESSURE 1 3  float
0.00000000e+00
6.94799995e+00
6.94799995e+00
DISPLACEMENT 3 3  float
0.00000000e+00 0.00000000e+00 1.20000000e+01 
1.15800000e+00 0.00000000e+00 1.20000000e+01 
1.15800000e+00 1.00000000e+00 1.20000000e+01 
VELOCITY 3 3  float
0.00000000e+00 0.00000000e+00 4.00000000e+00 
2.00000000e+00 0.00000000e+00 4.00000000e+00 
2.00000000e+00 2.00000000e+00 4.00000000e+00 
BOUNDARY 1 3  float
-1.00000000e+00
-1.00000000e+00
-1.00000000e+00
CELL_DATA 2
FIELD FieldData 3
DENSITY 1 2  float
1.20000000e+01
1.80000000e+01
YOUNG_MODULUS 1 2  float
2.31599998e+00
3.47399998e+00
BOUNDARY 1 2  float
-1.00000000e+00
-1.00000000e+00
