<?xml version="1.0"?>
<VTKFile byte_order="LittleEndian" type="UnstructuredGrid" version="0.1">
   <UnstructuredGrid>
      <Piece NumberOfCells="2" NumberOfPoints="3">
         <Points>
            <DataArray Name="Position" NumberOfComponents="3" format="ascii" type="Float64">
              0.000000000e+00  1.000000000e+00  0.000000000e+00  0.000000000e+00  5.000000000e-01  0.000000000e+00  0.000000000e+00  0.000000000e+00  0.000000000e+00
            </DataArray>
         </Points>
         <Cells>
            <DataArray Name="connectivity" NumberOfComponents="1" format="ascii" type="Int32">
              0  1  1  2
            </DataArray>
            <DataArray Name="offsets" NumberOfComponents="1" format="ascii" type="Int32">
              2  4
            </DataArray>
            <DataArray Name="types" NumberOfComponents="1" format="ascii" type="UInt8">
              3  3
            </DataArray>
         </Cells>
         <PointData>
            <DataArray Name="KRATOS_ID" NumberOfComponents="1" format="ascii" type="Int32">
              1  2  5
            </DataArray>
            <DataArray Name="DISPLACEMENT" NumberOfComponents="3" format="ascii" type="Float64">
              0.000000000e+00  3.000000000e+00  0.000000000e+00  0.000000000e+00  1.500000000e+00  0.000000000e+00  0.000000000e+00  0.000000000e+00  0.000000000e+00
            </DataArray>
            <DataArray Name="PRESSURE" NumberOfComponents="1" format="ascii" type="Float64">
              8.000000000e+00  1.600000000e+01  4.000000000e+01
            </DataArray>
            <DataArray Name="VELOCITY" NumberOfComponents="3" format="ascii" type="Float64">
              0.000000000e+00  6.000000000e+00  0.000000000e+00  0.000000000e+00  3.000000000e+00  0.000000000e+00  0.000000000e+00  0.000000000e+00  0.000000000e+00
            </DataArray>
         </PointData>
         <CellData>
            <DataArray Name="DENSITY" NumberOfComponents="1" format="ascii" type="Float64">
              0.000000000e+00  4.362000000e+00
            </DataArray>
            <DataArray Name="YOUNG_MODULUS" NumberOfComponents="1" format="ascii" type="Float64">
              0.000000000e+00  5.326000000e+00
            </DataArray>
            <DataArray Name="KRATOS_ID" NumberOfComponents="1" format="ascii" type="Int32">
              1  2
            </DataArray>
         </CellData>
      </Piece>
   </UnstructuredGrid>
</VTKFile>
