/*--------------------------------*- C++ -*----------------------------------*\
| =========                 |                                                 |
| \\      /  F ield         | OpenFOAM: The Open Source CFD Toolbox           |
|  \\    /   O peration     | Version:  4.x                                   |
|   \\  /    A nd           | Web:      www.OpenFOAM.org                      |
|    \\/     M anipulation  |                                                 |
\*---------------------------------------------------------------------------*/
FoamFile
{
    version     2.0;
    format      ascii;
    class       pointVectorField;
    location    "0";
    object      pointDisplacement;
}
// * * * * * * * * * * * * * * * * * * * * * * * * * * * * * * * * * * * * * //

dimensions      [0 1 0 0 0 0 0];

internalField   uniform (0 0 0);

boundaryField
{
	 ".*"
	 {
		 type            fixedValue;
	 	 value           uniform (0 0 0);
	 }


 
 	 walls 
	 { 
		 type  	 fixedValue; 
		 value 	 nonuniform List<vector> ( 
 (    0.00000000000000000e+00     4.77263996500221221e-04    -4.08024523675665218e-04) 
 (    0.00000000000000000e+00     1.19198989122831778e-03    -3.87300971826765039e-04) 
 (    0.00000000000000000e+00     1.25333233564304267e-03     0.00000000000000000e+00) 
 (    0.00000000000000000e+00     1.19199013357684791e-03     3.87300225953790545e-04) 
 (    0.00000000000000000e+00     1.01396725945895883e-03     7.36690125027972265e-04) 
 (    0.00000000000000000e+00     2.34880807301790506e-03    -2.00804654263259108e-03) 
 (    0.00000000000000000e+00     3.50107327680487801e-03    -1.13756518027413600e-03) 
 (    0.00000000000000000e+00     3.68124552684677940e-03     0.00000000000000000e+00) 
 (    0.00000000000000000e+00     3.50107256498691233e-03     1.13756737102704841e-03) 
 (    0.00000000000000000e+00     2.97819048635428185e-03     2.16378142517170691e-03) 
 (    0.00000000000000000e+00     4.07276270663731177e-03    -3.48190168689044288e-03) 
 (    0.00000000000000000e+00     5.59016997344316535e-03    -1.81635622862558188e-03) 
 (    0.00000000000000000e+00     5.87785252292473154e-03     0.00000000000000000e+00) 
 (    0.00000000000000000e+00     5.59016997344316535e-03     1.81635622862558188e-03) 
 (    0.00000000000000000e+00     4.75528305197359114e-03     3.45491438054046363e-03) 
 (    0.00000000000000000e+00     5.54081331484529427e-03    -4.73697306161841025e-03) 
 (    0.00000000000000000e+00     7.32801644326097623e-03    -2.38101674428864429e-03) 
 (    0.00000000000000000e+00     7.70513242775789156e-03     0.00000000000000000e+00) 
 (    0.00000000000000000e+00     7.32801644326097623e-03     2.38101674428864429e-03) 
 (    0.00000000000000000e+00     6.23358369472964968e-03     4.52896235909361344e-03) 
 (    0.00000000000000000e+00     6.66071424479564023e-03    -5.69440299751661216e-03) 
 (    0.00000000000000000e+00     8.60541668938943904e-03    -2.79606922114100653e-03) 
 (    0.00000000000000000e+00     9.04827052466019612e-03     0.00000000000000000e+00) 
 (    0.00000000000000000e+00     8.60541843899334524e-03     2.79606383640784717e-03) 
 (    0.00000000000000000e+00     7.32020534842869885e-03     5.31843897626649298e-03) 
 (    0.00000000000000000e+00     7.36208834524482159e-03    -6.29404394638322096e-03) 
 (    0.00000000000000000e+00     9.34210695641482514e-03    -3.03543438560582857e-03) 
 (    0.00000000000000000e+00     9.82287250728688770e-03     0.00000000000000000e+00) 
 (    0.00000000000000000e+00     9.34210695641482514e-03     3.03543438560582857e-03) 
 (    0.00000000000000000e+00     7.94687157825391122e-03     5.77373851271018035e-03) 
 (    0.00000000000000000e+00     7.60088409617426519e-03    -6.49819674652318824e-03) 
 (    0.00000000000000000e+00     9.49179828550267279e-03    -3.08407204407623592e-03) 
 (    0.00000000000000000e+00     9.98026728428271642e-03     0.00000000000000000e+00) 
 (    0.00000000000000000e+00     9.49180021532058937e-03     3.08406610470074449e-03) 
 (    0.00000000000000000e+00     8.07420664026820001e-03     5.86625282407543525e-03) 
 (    0.00000000000000000e+00     7.36209660133863020e-03    -6.29403428928942965e-03) 
 (    0.00000000000000000e+00     9.04508501992015712e-03    -2.93892611359380940e-03) 
 (    0.00000000000000000e+00     9.51056516295153628e-03     0.00000000000000000e+00) 
 (    0.00000000000000000e+00     9.04508501992015712e-03     2.93892611359380940e-03) 
 (    0.00000000000000000e+00     7.69420960421957068e-03     5.59016889593527688e-03) 
 (    0.00000000000000000e+00     6.66072171431814075e-03    -5.69439426044254793e-03) 
 (    0.00000000000000000e+00     8.03003579704031356e-03    -2.60911664678004085e-03) 
 (    0.00000000000000000e+00     8.44327925502015228e-03     0.00000000000000000e+00) 
 (    0.00000000000000000e+00     8.03003579704031356e-03     2.60911664678004085e-03) 
 (    0.00000000000000000e+00     6.83075708141439586e-03     4.96283409686049115e-03) 
 (    0.00000000000000000e+00     5.54081952847768067e-03    -4.73696579355459280e-03) 
 (    0.00000000000000000e+00     6.51042989262659577e-03    -2.11536678538937206e-03) 
 (    0.00000000000000000e+00     6.84547105928688844e-03     0.00000000000000000e+00) 
 (    0.00000000000000000e+00     6.51043121628980259e-03     2.11536271156825828e-03) 
 (    0.00000000000000000e+00     5.53810296941664726e-03     4.02366617945287830e-03) 
 (    0.00000000000000000e+00     4.07275736425988244e-03    -3.48190793583247338e-03) 
 (    0.00000000000000000e+00     4.58174973437289190e-03    -1.48870064909778499e-03) 
 (    0.00000000000000000e+00     4.81753674101715202e-03     0.00000000000000000e+00) 
 (    0.00000000000000000e+00     4.58174973437289190e-03     1.48870064909778499e-03) 
 (    0.00000000000000000e+00     3.89746948013247607e-03     2.83167651798116315e-03) 
 (    0.00000000000000000e+00     2.34880499201817194e-03    -2.00805014646621149e-03) 
 (    0.00000000000000000e+00     2.36518138981173243e-03    -7.68493975965400811e-04) 
 (    0.00000000000000000e+00     2.48689887164855235e-03     0.00000000000000000e+00) 
 (    0.00000000000000000e+00     2.36518138981173243e-03     7.68493975965400811e-04) 
 (    0.00000000000000000e+00     2.01194364952156368e-03     1.46176220670696244e-03) 
 (    0.00000000000000000e+00     4.77263996500221221e-04    -4.08024523675665218e-04) 
 (    0.00000000000000000e+00     0.00000000000000000e+00     0.00000000000000000e+00) 
 (    0.00000000000000000e+00     1.22464679914735319e-18     0.00000000000000000e+00) 
 (    0.00000000000000000e+00     0.00000000000000000e+00     0.00000000000000000e+00) 
 (    0.00000000000000000e+00     0.00000000000000000e+00     0.00000000000000000e+00) 
 (    0.00000000000000000e+00    -1.42426365395487142e-03     1.21764064880020006e-03) 
 (    0.00000000000000000e+00    -2.36518138981170467e-03     7.68493975965400811e-04) 
 (    0.00000000000000000e+00    -2.48689887164855019e-03     0.00000000000000000e+00) 
 (    0.00000000000000000e+00    -2.36518138981170467e-03    -7.68493975965400811e-04) 
 (    0.00000000000000000e+00    -2.01194364952156368e-03    -1.46176220670696244e-03) 
 (    0.00000000000000000e+00    -3.23629904573730087e-03     2.76679760718512302e-03) 
 (    0.00000000000000000e+00    -4.58174973437289190e-03     1.48870064909778499e-03) 
 (    0.00000000000000000e+00    -4.81753674101715029e-03     0.00000000000000000e+00) 
 (    0.00000000000000000e+00    -4.58174973437289190e-03    -1.48870064909778499e-03) 
 (    0.00000000000000000e+00    -3.89746948013247607e-03    -2.83167651798116315e-03) 
 (    0.00000000000000000e+00    -4.84498586620074612e-03     4.14210649634078054e-03) 
 (    0.00000000000000000e+00    -6.51042989262659577e-03     2.11536678538937206e-03) 
 (    0.00000000000000000e+00    -6.84547105928688757e-03     0.00000000000000000e+00) 
 (    0.00000000000000000e+00    -6.51042989262659577e-03    -2.11536678538937206e-03) 
 (    0.00000000000000000e+00    -5.53810296941664726e-03    -4.02366617945287830e-03) 
 (    0.00000000000000000e+00    -6.14925130204901915e-03     5.25714353456280259e-03) 
 (    0.00000000000000000e+00    -8.03003579704031356e-03     2.60911664678004085e-03) 
 (    0.00000000000000000e+00    -8.44327925502014881e-03     0.00000000000000000e+00) 
 (    0.00000000000000000e+00    -8.03003579704031356e-03    -2.60911664678004085e-03) 
 (    0.00000000000000000e+00    -6.83075708141439586e-03    -4.96283409686049115e-03) 
 (    0.00000000000000000e+00    -7.06713122989494069e-03     6.04186126541439439e-03) 
 (    0.00000000000000000e+00    -9.04508501992015712e-03     2.93892611359380940e-03) 
 (    0.00000000000000000e+00    -9.51056516295153628e-03     0.00000000000000000e+00) 
 (    0.00000000000000000e+00    -9.04508501992015712e-03    -2.93892611359380940e-03) 
 (    0.00000000000000000e+00    -7.69420960421957068e-03    -5.59016889593527688e-03) 
 (    0.00000000000000000e+00    -7.54094885480194321e-03     6.44695652425958388e-03) 
 (    0.00000000000000000e+00    -9.49179828550267279e-03     3.08407204407623592e-03) 
 (    0.00000000000000000e+00    -9.98026728428271642e-03     0.00000000000000000e+00) 
 (    0.00000000000000000e+00    -9.49179828550267279e-03    -3.08407204407623592e-03) 
 (    0.00000000000000000e+00    -8.07420664026820001e-03    -5.86625282407543525e-03) 
 (    0.00000000000000000e+00    -7.54094885480194321e-03     6.44695652425958388e-03) 
 (    0.00000000000000000e+00    -9.34210695641482514e-03     3.03543438560582857e-03) 
 (    0.00000000000000000e+00    -9.82287250728688770e-03     0.00000000000000000e+00) 
 (    0.00000000000000000e+00    -9.34210695641482514e-03    -3.03543438560582857e-03) 
 (    0.00000000000000000e+00    -7.94687157825391122e-03    -5.77373851271018035e-03) 
 (    0.00000000000000000e+00    -7.06713122989494069e-03     6.04186126541439439e-03) 
 (    0.00000000000000000e+00    -8.60541668938943904e-03     2.79606922114100653e-03) 
 (    0.00000000000000000e+00    -9.04827052466019958e-03     0.00000000000000000e+00) 
 (    0.00000000000000000e+00    -8.60541668938943904e-03    -2.79606922114100653e-03) 
 (    0.00000000000000000e+00    -7.32020534842869885e-03    -5.31843897626649298e-03) 
 (    0.00000000000000000e+00    -6.14925130204901915e-03     5.25714353456280259e-03) 
 (    0.00000000000000000e+00    -7.32801644326097623e-03     2.38101674428864429e-03) 
 (    0.00000000000000000e+00    -7.70513242775789590e-03     0.00000000000000000e+00) 
 (    0.00000000000000000e+00    -7.32801644326097623e-03    -2.38101674428864429e-03) 
 (    0.00000000000000000e+00    -6.23358369472964968e-03    -4.52896235909361344e-03) 
 (    0.00000000000000000e+00    -4.84499129953108731e-03     4.14210014101323853e-03) 
 (    0.00000000000000000e+00    -5.59016997344316535e-03     1.81635622862558188e-03) 
 (    0.00000000000000000e+00    -5.87785252292473415e-03     0.00000000000000000e+00) 
 (    0.00000000000000000e+00    -5.59016997344316535e-03    -1.81635622862558188e-03) 
 (    0.00000000000000000e+00    -4.75528305197359114e-03    -3.45491438054046363e-03) 
 (    0.00000000000000000e+00    -3.23630692018977983e-03     2.76678839648020203e-03) 
 (    0.00000000000000000e+00    -3.50107256498691233e-03     1.13756737102704841e-03) 
 (    0.00000000000000000e+00    -3.68124552684677853e-03     0.00000000000000000e+00) 
 (    0.00000000000000000e+00    -3.50107256498691233e-03    -1.13756737102704841e-03) 
 (    0.00000000000000000e+00    -2.97819048635428185e-03    -2.16378142517170691e-03) 
 (    0.00000000000000000e+00    -1.42426711942461592e-03     1.21763659525875312e-03) 
 (    0.00000000000000000e+00    -1.19198989122831778e-03     3.87300971826765039e-04) 
 (    0.00000000000000000e+00    -1.25333233564303790e-03     0.00000000000000000e+00) 
 (    0.00000000000000000e+00    -1.19198989122831778e-03    -3.87300971826765039e-04) 
 (    0.00000000000000000e+00    -1.01396725945895883e-03    -7.36690125027972265e-04) 
 (    0.00000000000000000e+00     4.77263996500221221e-04    -4.08024523675665218e-04) 
 (    0.00000000000000000e+00     1.19198989122831778e-03    -3.87300971826765039e-04) 
 (    0.00000000000000000e+00     1.25333233564303291e-03     0.00000000000000000e+00) 
 (    0.00000000000000000e+00     1.19198989122831778e-03     3.87300971826765039e-04) 
 (    0.00000000000000000e+00     1.01396725945895883e-03     7.36690125027972265e-04) 
 (    0.00000000000000000e+00     2.34880499201817194e-03    -2.00805014646621149e-03) 
 (    0.00000000000000000e+00     3.50107256498691233e-03    -1.13756737102704841e-03) 
 (    0.00000000000000000e+00     3.68124552684677376e-03     0.00000000000000000e+00) 
 (    0.00000000000000000e+00     3.50107256498691233e-03     1.13756737102704841e-03) 
 (    0.00000000000000000e+00     2.97819048635428185e-03     2.16378142517170691e-03) 
 (    0.00000000000000000e+00     4.07276193158717659e-03    -3.48190259346248254e-03) 
 (    0.00000000000000000e+00     5.59016997344316535e-03    -1.81635622862558188e-03) 
 (    0.00000000000000000e+00     5.87785252292472894e-03     0.00000000000000000e+00) 
 (    0.00000000000000000e+00     5.59016997344316535e-03     1.81635622862558188e-03) 
 (    0.00000000000000000e+00     4.75528305197359114e-03     3.45491438054046363e-03) 
 (    0.00000000000000000e+00     5.54081952847768067e-03    -4.73696579355459280e-03) 
 (    0.00000000000000000e+00     7.32801644326097623e-03    -2.38101674428864429e-03) 
 (    0.00000000000000000e+00     7.70513242775789243e-03     0.00000000000000000e+00) 
 (    0.00000000000000000e+00     7.32801644326097623e-03     2.38101674428864429e-03) 
 (    0.00000000000000000e+00     6.23358369472964968e-03     4.52896235909361344e-03) 
 (    0.00000000000000000e+00     6.66072171431814075e-03    -5.69439426044254793e-03) 
 (    0.00000000000000000e+00     8.60541668938943904e-03    -2.79606922114100653e-03) 
 (    0.00000000000000000e+00     9.04827052466019785e-03     0.00000000000000000e+00) 
 (    0.00000000000000000e+00     8.60541668938943904e-03     2.79606922114100653e-03) 
 (    0.00000000000000000e+00     7.32020534842869885e-03     5.31843897626649298e-03) 
 (    0.00000000000000000e+00     7.36209660133863020e-03    -6.29403428928942965e-03) 
 (    0.00000000000000000e+00     9.34210695641482514e-03    -3.03543438560582857e-03) 
 (    0.00000000000000000e+00     9.82287250728688596e-03     0.00000000000000000e+00) 
 (    0.00000000000000000e+00     9.34210695641482514e-03     3.03543438560582857e-03) 
 (    0.00000000000000000e+00     7.94687157825391122e-03     5.77373851271018035e-03) 
 (    0.00000000000000000e+00     7.60089262006169442e-03    -6.49818677619312668e-03) 
 (    0.00000000000000000e+00     9.49179828550267279e-03    -3.08407204407623592e-03) 
 (    0.00000000000000000e+00     9.98026728428271642e-03     0.00000000000000000e+00) 
 (    0.00000000000000000e+00     9.49179828550267279e-03     3.08407204407623592e-03) 
 (    0.00000000000000000e+00     8.07420664026820001e-03     5.86625282407543525e-03) 
 (    0.00000000000000000e+00     7.36209660133863020e-03    -6.29403428928942965e-03) 
 (    0.00000000000000000e+00     9.04508501992015712e-03    -2.93892611359380940e-03) 
 (    0.00000000000000000e+00     9.51056516295153628e-03     0.00000000000000000e+00) 
 (    0.00000000000000000e+00     9.04508501992015712e-03     2.93892611359380940e-03) 
 (    0.00000000000000000e+00     7.69420960421957068e-03     5.59016889593527688e-03) 
 (    0.00000000000000000e+00     6.66072171431814075e-03    -5.69439426044254793e-03) 
 (    0.00000000000000000e+00     8.03003579704031356e-03    -2.60911664678004085e-03) 
 (    0.00000000000000000e+00     8.44327925502015054e-03     0.00000000000000000e+00) 
 (    0.00000000000000000e+00     8.03003579704031356e-03     2.60911664678004085e-03) 
 (    0.00000000000000000e+00     6.83075708141439586e-03     4.96283409686049115e-03) 
 (    0.00000000000000000e+00     5.54081952847768067e-03    -4.73696579355459280e-03) 
 (    0.00000000000000000e+00     6.51042989262659577e-03    -2.11536678538937206e-03) 
 (    0.00000000000000000e+00     6.84547105928688410e-03     0.00000000000000000e+00) 
 (    0.00000000000000000e+00     6.51042989262659577e-03     2.11536678538937206e-03) 
 (    0.00000000000000000e+00     5.53810296941664726e-03     4.02366617945287830e-03) 
 (    0.00000000000000000e+00     4.07276193158717659e-03    -3.48190259346248254e-03) 
 (    0.00000000000000000e+00     4.58174973437289190e-03    -1.48870064909778499e-03) 
 (    0.00000000000000000e+00     4.81753674101716243e-03     0.00000000000000000e+00) 
 (    0.00000000000000000e+00     4.58174973437289190e-03     1.48870064909778499e-03) 
 (    0.00000000000000000e+00     3.89746948013247607e-03     2.83167651798116315e-03) 
 (    0.00000000000000000e+00     2.34880499201817194e-03    -2.00805014646621149e-03) 
 (    0.00000000000000000e+00     2.36518138981173243e-03    -7.68493975965400811e-04) 
 (    0.00000000000000000e+00     2.48689887164855496e-03     0.00000000000000000e+00) 
 (    0.00000000000000000e+00     2.36518138981173243e-03     7.68493975965400811e-04) 
 (    0.00000000000000000e+00     2.01194364952156368e-03     1.46176220670696244e-03) 
 (    0.00000000000000000e+00     4.77263996500221221e-04    -4.08024523675665218e-04) 
 (    0.00000000000000000e+00     0.00000000000000000e+00     0.00000000000000000e+00) 
 (    0.00000000000000000e+00     3.67394039744205919e-18     0.00000000000000000e+00) 
 (    0.00000000000000000e+00     0.00000000000000000e+00     0.00000000000000000e+00) 
 (    0.00000000000000000e+00     0.00000000000000000e+00     0.00000000000000000e+00) 
 (    0.00000000000000000e+00    -1.42426711942461592e-03     1.21763659525875312e-03) 
 (    0.00000000000000000e+00    -2.36518138981170467e-03     7.68493975965400811e-04) 
 (    0.00000000000000000e+00    -2.48689887164854758e-03     0.00000000000000000e+00) 
 (    0.00000000000000000e+00    -2.36518138981170467e-03    -7.68493975965400811e-04) 
 (    0.00000000000000000e+00    -2.01194364952156368e-03    -1.46176220670696244e-03) 
 (    0.00000000000000000e+00    -3.23630692018972432e-03     2.76678839648020203e-03) 
 (    0.00000000000000000e+00    -4.58174973437289190e-03     1.48870064909778499e-03) 
 (    0.00000000000000000e+00    -4.81753674101715549e-03     0.00000000000000000e+00) 
 (    0.00000000000000000e+00    -4.58174973437289190e-03    -1.48870064909778499e-03) 
 (    0.00000000000000000e+00    -3.89746948013247607e-03    -2.83167651798116315e-03) 
 (    0.00000000000000000e+00    -4.84499129953108731e-03     4.14210014101323853e-03) 
 (    0.00000000000000000e+00    -6.51042989262656802e-03     2.11536678538937206e-03) 
 (    0.00000000000000000e+00    -6.84547105928687890e-03     0.00000000000000000e+00) 
 (    0.00000000000000000e+00    -6.51042989262656802e-03    -2.11536678538937206e-03) 
 (    0.00000000000000000e+00    -5.53810296941664726e-03    -4.02366617945287830e-03) 
 (    0.00000000000000000e+00    -6.14925936821097974e-03     5.25713409960376632e-03) 
 (    0.00000000000000000e+00    -8.03003579704031356e-03     2.60911664678004085e-03) 
 (    0.00000000000000000e+00    -8.44327925502015575e-03     0.00000000000000000e+00) 
 (    0.00000000000000000e+00    -8.03003579704031356e-03    -2.60911664678004085e-03) 
 (    0.00000000000000000e+00    -6.83075708141439586e-03    -4.96283409686049115e-03) 
 (    0.00000000000000000e+00    -7.06713122989488518e-03     6.04186126541439439e-03) 
 (    0.00000000000000000e+00    -9.04508501992015712e-03     2.93892611359380940e-03) 
 (    0.00000000000000000e+00    -9.51056516295153455e-03     0.00000000000000000e+00) 
 (    0.00000000000000000e+00    -9.04508501992015712e-03    -2.93892611359380940e-03) 
 (    0.00000000000000000e+00    -7.69420960421957068e-03    -5.59016889593527688e-03) 
 (    0.00000000000000000e+00    -7.54095731147591541e-03     6.44694663254857803e-03) 
 (    0.00000000000000000e+00    -9.49180021532058937e-03     3.08406610470074449e-03) 
 (    0.00000000000000000e+00    -9.98026728428271469e-03     0.00000000000000000e+00) 
 (    0.00000000000000000e+00    -9.49179828550267279e-03    -3.08407204407623592e-03) 
 (    0.00000000000000000e+00    -8.07420664026820001e-03    -5.86625282407543525e-03) 
 (    0.00000000000000000e+00    -7.54095731147591541e-03     6.44694663254857803e-03) 
 (    0.00000000000000000e+00    -9.34210695641482514e-03     3.03543438560582857e-03) 
 (    0.00000000000000000e+00    -9.82287250728688596e-03     0.00000000000000000e+00) 
 (    0.00000000000000000e+00    -9.34210695641482514e-03    -3.03543438560582857e-03) 
 (    0.00000000000000000e+00    -7.94687157825391122e-03    -5.77373851271018035e-03) 
 (    0.00000000000000000e+00    -7.06713122989494069e-03     6.04186126541439439e-03) 
 (    0.00000000000000000e+00    -8.60541668938943904e-03     2.79606922114100653e-03) 
 (    0.00000000000000000e+00    -9.04827052466019958e-03     0.00000000000000000e+00) 
 (    0.00000000000000000e+00    -8.60541668938943904e-03    -2.79606922114100653e-03) 
 (    0.00000000000000000e+00    -7.32020534842869885e-03    -5.31843897626649298e-03) 
 (    0.00000000000000000e+00    -6.14925936821097974e-03     5.25713409960376632e-03) 
 (    0.00000000000000000e+00    -7.32801644326097623e-03     2.38101674428864429e-03) 
 (    0.00000000000000000e+00    -7.70513242775788636e-03     0.00000000000000000e+00) 
 (    0.00000000000000000e+00    -7.32801644326097623e-03    -2.38101674428864429e-03) 
 (    0.00000000000000000e+00    -6.23358369472964968e-03    -4.52896235909361344e-03) 
 (    0.00000000000000000e+00    -4.84499129953114283e-03     4.14210014101323853e-03) 
 (    0.00000000000000000e+00    -5.59016997344316535e-03     1.81635622862558188e-03) 
 (    0.00000000000000000e+00    -5.87785252292473501e-03     0.00000000000000000e+00) 
 (    0.00000000000000000e+00    -5.59016997344316535e-03    -1.81635622862558188e-03) 
 (    0.00000000000000000e+00    -4.75528305197359114e-03    -3.45491438054046363e-03) 
 (    0.00000000000000000e+00    -3.23630267503205449e-03     2.76679336202506621e-03) 
 (    0.00000000000000000e+00    -3.50107327680490577e-03     1.13756518027419151e-03) 
 (    0.00000000000000000e+00    -3.68124552684679718e-03     0.00000000000000000e+00) 
 (    0.00000000000000000e+00    -3.50107256498691233e-03    -1.13756737102704841e-03) 
 (    0.00000000000000000e+00    -2.97819048635433736e-03    -2.16378142517170691e-03) 
 (    0.00000000000000000e+00    -1.42426525117211877e-03     1.21763878054664820e-03) 
 (    0.00000000000000000e+00    -1.19198989122831778e-03     3.87300971826765039e-04) 
 (    0.00000000000000000e+00    -1.25333233564304007e-03     0.00000000000000000e+00) 
 (    0.00000000000000000e+00    -1.19198989122831778e-03    -3.87300971826765039e-04) 
 (    0.00000000000000000e+00    -1.01396725945895883e-03    -7.36690125027972265e-04) 
 (    0.00000000000000000e+00     1.42426552221103231e-03    -1.21763846351385929e-03) 
 (    0.00000000000000000e+00     1.59816593184158862e-03    -9.78284907319104668e-04) 
 (    0.00000000000000000e+00     5.35537224595983297e-04    -3.27818265732915393e-04) 
 (    0.00000000000000000e+00     3.23630267503205449e-03    -2.76679336202506621e-03) 
 (    0.00000000000000000e+00     3.63145044513840665e-03    -2.22291884176401000e-03) 
 (    0.00000000000000000e+00     2.63559230789428556e-03    -1.61332063391667058e-03) 
 (    0.00000000000000000e+00     4.84499222153716991e-03    -4.14209906254764393e-03) 
 (    0.00000000000000000e+00     5.43655757142669227e-03    -3.32787861005734431e-03) 
 (    0.00000000000000000e+00     4.57004308797576142e-03    -2.79745269768605365e-03) 
 (    0.00000000000000000e+00     6.14925247225689420e-03    -5.25714216577694016e-03) 
 (    0.00000000000000000e+00     6.90006579124208264e-03    -4.22373552619931258e-03) 
 (    0.00000000000000000e+00     6.21734125339701293e-03    -3.80581052014855592e-03) 
 (    0.00000000000000000e+00     7.06713257477614709e-03    -6.04185969231396669e-03) 
 (    0.00000000000000000e+00     7.93001750072686029e-03    -4.85419960541755291e-03) 
 (    0.00000000000000000e+00     7.47398100208568339e-03    -4.57503527083807926e-03) 
 (    0.00000000000000000e+00     7.54095731147591541e-03    -6.44694663254857803e-03) 
 (    0.00000000000000000e+00     8.46168812843228757e-03    -5.17967103912780891e-03) 
 (    0.00000000000000000e+00     8.26099770776800302e-03    -5.05680243577355526e-03) 
 (    0.00000000000000000e+00     7.54095731147591541e-03    -6.44694663254857803e-03) 
 (    0.00000000000000000e+00     8.46169358719667253e-03    -5.17966212149267857e-03) 
 (    0.00000000000000000e+00     8.52895036719608646e-03    -5.22082422936320789e-03) 
 (    0.00000000000000000e+00     7.06713257477614709e-03    -6.04185969231396669e-03) 
 (    0.00000000000000000e+00     7.93001750072686029e-03    -4.85419960541755291e-03) 
 (    0.00000000000000000e+00     8.26099770776800302e-03    -5.05680243577355526e-03) 
 (    0.00000000000000000e+00     6.14925247225689420e-03    -5.25714216577694016e-03) 
 (    0.00000000000000000e+00     6.90006579124208264e-03    -4.22373552619931258e-03) 
 (    0.00000000000000000e+00     7.47396830383495470e-03    -4.57505601520030725e-03) 
 (    0.00000000000000000e+00     4.84499222153716991e-03    -4.14209906254764393e-03) 
 (    0.00000000000000000e+00     5.43655757142669227e-03    -3.32787861005734431e-03) 
 (    0.00000000000000000e+00     6.21733069016999762e-03    -3.80582777665200434e-03) 
 (    0.00000000000000000e+00     3.23629904573730087e-03    -2.76679760718512302e-03) 
 (    0.00000000000000000e+00     3.63145044513840665e-03    -2.22291884176401000e-03) 
 (    0.00000000000000000e+00     4.57004013978962176e-03    -2.79745751396837106e-03) 
 (    0.00000000000000000e+00     1.42426365395487142e-03    -1.21764064880020006e-03) 
 (    0.00000000000000000e+00     1.59816593184158862e-03    -9.78284907319104668e-04) 
 (    0.00000000000000000e+00     2.63559060764401165e-03    -1.61332341151770864e-03) 
 (    0.00000000000000000e+00    -4.77263461280852397e-04     4.08025149717883284e-04) 
 (    0.00000000000000000e+00    -5.35537224595983297e-04     3.27818265732915393e-04) 
 (    0.00000000000000000e+00     5.35537224595983297e-04    -3.27818265732915393e-04) 
 (    0.00000000000000000e+00    -2.34880807301790506e-03     2.00804654263259108e-03) 
 (    0.00000000000000000e+00    -2.63558783003808861e-03     1.61332794911872579e-03) 
 (    0.00000000000000000e+00    -1.59816593184158862e-03     9.78284907319104668e-04) 
 (    0.00000000000000000e+00    -4.07276270663731177e-03     3.48190168689044288e-03) 
 (    0.00000000000000000e+00    -4.57004013978962176e-03     2.79745751396837106e-03) 
 (    0.00000000000000000e+00    -3.63145044513840665e-03     2.22291884176401000e-03) 
 (    0.00000000000000000e+00    -5.54080604677742450e-03     4.73698156302732043e-03) 
 (    0.00000000000000000e+00    -6.21733724252027109e-03     3.80581707248733858e-03) 
 (    0.00000000000000000e+00    -5.43655757142669227e-03     3.32787861005728880e-03) 
 (    0.00000000000000000e+00    -6.66070550771669101e-03     5.69441321721758653e-03) 
 (    0.00000000000000000e+00    -7.47397618053646795e-03     4.57504314752582575e-03) 
 (    0.00000000000000000e+00    -6.90006579124208264e-03     4.22373552619931258e-03) 
 (    0.00000000000000000e+00    -7.36208834524482159e-03     6.29404394638322096e-03) 
 (    0.00000000000000000e+00    -8.26099770776800302e-03     5.05680243577355526e-03) 
 (    0.00000000000000000e+00    -7.93001750072686029e-03     4.85419960541755291e-03) 
 (    0.00000000000000000e+00    -7.60090259038620486e-03     6.49817511394240599e-03) 
 (    0.00000000000000000e+00    -8.52894137867443725e-03     5.22083891334856887e-03) 
 (    0.00000000000000000e+00    -8.46169704607674378e-03     5.17965647093004966e-03) 
 (    0.00000000000000000e+00    -7.36209800235204659e-03     6.29403265053157801e-03) 
 (    0.00000000000000000e+00    -8.26099770776800302e-03     5.05680243577355526e-03) 
 (    0.00000000000000000e+00    -8.46169704607674378e-03     5.17965647093004966e-03) 
 (    0.00000000000000000e+00    -6.66072171431814075e-03     5.69439426044254793e-03) 
 (    0.00000000000000000e+00    -7.47398100208568339e-03     4.57503527083807926e-03) 
 (    0.00000000000000000e+00    -7.93001750072686029e-03     4.85419960541755291e-03) 
 (    0.00000000000000000e+00    -5.54081952847768067e-03     4.73696579355459280e-03) 
 (    0.00000000000000000e+00    -6.21733069016999762e-03     3.80582777665200434e-03) 
 (    0.00000000000000000e+00    -6.90006579124208264e-03     4.22373552619931258e-03) 
 (    0.00000000000000000e+00    -4.07276727395416982e-03     3.48189634451606667e-03) 
 (    0.00000000000000000e+00    -4.57003532349886665e-03     2.79746538204117545e-03) 
 (    0.00000000000000000e+00    -5.43655757142669227e-03     3.32787861005734431e-03) 
 (    0.00000000000000000e+00    -2.34880807301790506e-03     2.00804654263259108e-03) 
 (    0.00000000000000000e+00    -2.63558783003808861e-03     1.61332794911872579e-03) 
 (    0.00000000000000000e+00    -3.63145044513840665e-03     2.22291884176401000e-03) 
 (    0.00000000000000000e+00    -4.77264622542050709e-04     4.08023791396872060e-04) 
 (    0.00000000000000000e+00    -5.35536660202007297e-04     3.27819187747990792e-04) 
 (    0.00000000000000000e+00    -1.59816593184158862e-03     9.78284907319104668e-04) 
 (    0.00000000000000000e+00     1.42426711942461592e-03    -1.21763659525875312e-03) 
 (    0.00000000000000000e+00     1.59816696283709980e-03    -9.78283223041054306e-04) 
 (    0.00000000000000000e+00     5.35537224595983297e-04    -3.27818265732915393e-04) 
 (    0.00000000000000000e+00     3.23630692018972432e-03    -2.76678839648020203e-03) 