# vtk DataFile Version 4.0
vtk output
ASCII
DATASET UNSTRUCTURED_GRID
POINTS 4325 float
0.0000000e+00 1.0000000e-02 0.0000000e+00 
5.0000000e-04 1.0000000e-02 0.0000000e+00 
0.0000000e+00 9.5000000e-03 0.0000000e+00 
4.4808610e-04 9.3758330e-03 0.0000000e+00 
1.0000000e-03 1.0000000e-02 0.0000000e+00 
0.0000000e+00 9.0000000e-03 0.0000000e+00 
9.9043040e-04 9.4820508e-03 0.0000000e+00 
6.9808610e-04 8.9472002e-03 0.0000000e+00 
1.5000000e-03 1.0000000e-02 0.0000000e+00 
0.0000000e+00 8.5000000e-03 0.0000000e+00 
5.0000000e-04 8.4641016e-03 0.0000000e+00 
1.5000000e-03 9.3301270e-03 0.0000000e+00 
1.2500000e-03 8.8971143e-03 0.0000000e+00 
1.0000000e-03 8.4641016e-03 0.0000000e+00 
2.0000000e-03 1.0000000e-02 0.0000000e+00 
0.0000000e+00 8.0000000e-03 0.0000000e+00 
1.7500000e-03 8.8971143e-03 0.0000000e+00 
7.5000000e-04 8.0310889e-03 0.0000000e+00 
2.0000000e-03 9.3301270e-03 0.0000000e+00 
1.5000000e-03 8.4641016e-03 0.0000000e+00 
1.2500000e-03 8.0310889e-03 0.0000000e+00 
5.0000000e-04 7.5980762e-03 0.0000000e+00 
2.5000000e-03 1.0000000e-02 0.0000000e+00 
0.0000000e+00 7.5000000e-03 0.0000000e+00 
2.2500000e-03 8.8971143e-03 0.0000000e+00 
2.0000000e-03 8.4641016e-03 0.0000000e+00 
2.5000000e-03 9.3301270e-03 0.0000000e+00 
1.0000000e-03 7.5980762e-03 0.0000000e+00 
1.7500000e-03 8.0310889e-03 0.0000000e+00 
1.5000000e-03 7.5980762e-03 0.0000000e+00 
2.5000000e-03 8.4641016e-03 0.0000000e+00 
7.0833330e-04 7.1375529e-03 0.0000000e+00 
2.7500000e-03 8.8971143e-03 0.0000000e+00 
2.2500000e-03 8.0310889e-03 0.0000000e+00 
3.0000000e-03 1.0000000e-02 0.0000000e+00 
0.0000000e+00 7.0000000e-03 0.0000000e+00 
3.0000000e-03 9.3301270e-03 0.0000000e+00 
1.2500000e-03 7.1650635e-03 0.0000000e+00 
2.0000000e-03 7.5980762e-03 0.0000000e+00 
4.6309520e-04 6.7296002e-03 0.0000000e+00 
1.7500000e-03 7.1650635e-03 0.0000000e+00 
3.0000000e-03 8.4641016e-03 0.0000000e+00 
2.7500000e-03 8.0310889e-03 0.0000000e+00 
1.0000000e-03 6.7320508e-03 0.0000000e+00 
3.2500000e-03 8.8971143e-03 0.0000000e+00 
2.5000000e-03 7.5980762e-03 0.0000000e+00 
3.5000000e-03 1.0000000e-02 0.0000000e+00 
0.0000000e+00 6.5000000e-03 0.0000000e+00 
3.5000000e-03 9.3301270e-03 0.0000000e+00 
1.5000000e-03 6.7320508e-03 0.0000000e+00 
2.2500000e-03 7.1650635e-03 0.0000000e+00 
6.0714290e-04 6.2783972e-03 0.0000000e+00 
3.2500000e-03 8.0310889e-03 0.0000000e+00 
3.5000000e-03 8.4641016e-03 0.0000000e+00 
2.0000000e-03 6.7320508e-03 0.0000000e+00 
3.0000000e-03 7.5980762e-03 0.0000000e+00 
1.2500000e-03 6.2990381e-03 0.0000000e+00 
3.7500000e-03 8.8971143e-03 0.0000000e+00 
2.7500000e-03 7.1650635e-03 0.0000000e+00 
4.0000000e-03 1.0000000e-02 0.0000000e+00 
0.0000000e+00 6.0000000e-03 0.0000000e+00 
4.0000000e-03 9.3301270e-03 0.0000000e+00 
1.7500000e-03 6.2990381e-03 0.0000000e+00 
2.5000000e-03 6.7320508e-03 0.0000000e+00 
4.7142860e-04 5.8154871e-03 0.0000000e+00 
3.7500000e-03 8.0310889e-03 0.0000000e+00 
3.5000000e-03 7.5980762e-03 0.0000000e+00 
1.0000000e-03 5.8660254e-03 0.0000000e+00 
4.0000000e-03 8.4641016e-03 0.0000000e+00 
3.2500000e-03 7.1650635e-03 0.0000000e+00 
2.2500000e-03 6.2990381e-03 0.0000000e+00 
4.2500000e-03 8.8971143e-03 0.0000000e+00 
1.5000000e-03 5.8660254e-03 0.0000000e+00 
3.0000000e-03 6.7320508e-03 0.0000000e+00 
4.5000000e-03 1.0000000e-02 0.0000000e+00 
0.0000000e+00 5.5000000e-03 0.0000000e+00 
4.5000000e-03 9.3301270e-03 0.0000000e+00 
2.0000000e-03 5.8660254e-03 0.0000000e+00 
2.7500000e-03 6.2990381e-03 0.0000000e+00 
7.0357140e-04 5.4357542e-03 0.0000000e+00 
4.0000000e-03 7.5980762e-03 0.0000000e+00 
4.2500000e-03 8.0310889e-03 0.0000000e+00 
3.7500000e-03 7.1650635e-03 0.0000000e+00 
1.2500000e-03 5.4330127e-03 0.0000000e+00 
4.5000000e-03 8.4641016e-03 0.0000000e+00 
3.5000000e-03 6.7320508e-03 0.0000000e+00 
2.5000000e-03 5.8660254e-03 0.0000000e+00 
4.7500000e-03 8.8971143e-03 0.0000000e+00 
1.7500000e-03 5.4330127e-03 0.0000000e+00 
3.2500000e-03 6.2990381e-03 0.0000000e+00 
5.0000000e-03 1.0000000e-02 0.0000000e+00 
0.0000000e+00 5.0000000e-03 0.0000000e+00 
5.0000000e-04 5.0000000e-03 0.0000000e+00 
5.0000000e-03 9.3301270e-03 0.0000000e+00 
2.2500000e-03 5.4330127e-03 0.0000000e+00 
1.0000000e-03 5.0000000e-03 0.0000000e+00 
4.5000000e-03 7.5980762e-03 0.0000000e+00 
3.0000000e-03 5.8660254e-03 0.0000000e+00 
4.2500000e-03 7.1650635e-03 0.0000000e+00 
4.7500000e-03 8.0310889e-03 0.0000000e+00 
4.0000000e-03 6.7320508e-03 0.0000000e+00 
1.5000000e-03 5.0000000e-03 0.0000000e+00 
5.0000000e-03 8.4641016e-03 0.0000000e+00 
3.7500000e-03 6.2990381e-03 0.0000000e+00 
2.7500000e-03 5.4330127e-03 0.0000000e+00 
5.2500000e-03 8.8971143e-03 0.0000000e+00 
2.0000000e-03 5.0000000e-03 0.0000000e+00 
3.5000000e-03 5.8660254e-03 0.0000000e+00 
5.5000000e-03 1.0000000e-02 0.0000000e+00 
4.7500000e-03 7.1650635e-03 0.0000000e+00 
5.5000000e-03 9.3301270e-03 0.0000000e+00 
5.0000000e-03 7.5980762e-03 0.0000000e+00 
4.5000000e-03 6.7320508e-03 0.0000000e+00 
2.5000000e-03 5.0000000e-03 0.0000000e+00 
3.2500000e-03 5.4330127e-03 0.0000000e+00 
5.2500000e-03 8.0310889e-03 0.0000000e+00 
4.2500000e-03 6.2990381e-03 0.0000000e+00 
5.5000000e-03 8.4641016e-03 0.0000000e+00 
4.0000000e-03 5.8660254e-03 0.0000000e+00 
3.0000000e-03 5.0000000e-03 0.0000000e+00 
5.7500000e-03 8.8971143e-03 0.0000000e+00 
3.7500000e-03 5.4330127e-03 0.0000000e+00 
5.2500000e-03 7.1650635e-03 0.0000000e+00 
5.0000000e-03 6.7320508e-03 0.0000000e+00 
6.0000000e-03 1.0000000e-02 0.0000000e+00 
5.5000000e-03 7.5980762e-03 0.0000000e+00 
4.7500000e-03 6.2990381e-03 0.0000000e+00 
6.0000000e-03 9.3301270e-03 0.0000000e+00 
5.7500000e-03 8.0310889e-03 0.0000000e+00 
3.5000000e-03 5.0000000e-03 0.0000000e+00 
4.5000000e-03 5.8660254e-03 0.0000000e+00 
6.0000000e-03 8.4641016e-03 0.0000000e+00 
4.2500000e-03 5.4330127e-03 0.0000000e+00 
6.2500000e-03 8.8971143e-03 0.0000000e+00 
5.5000000e-03 6.7320508e-03 0.0000000e+00 
4.0000000e-03 5.0000000e-03 0.0000000e+00 
5.7500000e-03 7.1650635e-03 0.0000000e+00 
5.2500000e-03 6.2990381e-03 0.0000000e+00 
6.0000000e-03 7.5980762e-03 0.0000000e+00 
5.0000000e-03 5.8660254e-03 0.0000000e+00 
6.5000000e-03 1.0000000e-02 0.0000000e+00 
6.5000000e-03 9.3301270e-03 0.0000000e+00 
6.2500000e-03 8.0310889e-03 0.0000000e+00 
4.7500000e-03 5.4330127e-03 0.0000000e+00 
6.5000000e-03 8.4641016e-03 0.0000000e+00 
4.5000000e-03 5.0000000e-03 0.0000000e+00 
6.0000000e-03 6.7320508e-03 0.0000000e+00 
5.7500000e-03 6.2990381e-03 0.0000000e+00 
6.7500000e-03 8.8971143e-03 0.0000000e+00 
6.2500000e-03 7.1650635e-03 0.0000000e+00 
5.5000000e-03 5.8660254e-03 0.0000000e+00 
6.5000000e-03 7.5980762e-03 0.0000000e+00 
5.2500000e-03 5.4330127e-03 0.0000000e+00 
7.0000000e-03 1.0000000e-02 0.0000000e+00 
6.7500000e-03 8.0310889e-03 0.0000000e+00 
7.0000000e-03 9.3301270e-03 0.0000000e+00 
5.0000000e-03 5.0000000e-03 0.0000000e+00 
7.0000000e-03 8.4641016e-03 0.0000000e+00 
6.2500000e-03 6.2990381e-03 0.0000000e+00 
6.5000000e-03 6.7320508e-03 0.0000000e+00 
6.0000000e-03 5.8660254e-03 0.0000000e+00 
6.7500000e-03 7.1650635e-03 0.0000000e+00 
7.2500000e-03 8.8971143e-03 0.0000000e+00 
5.7500000e-03 5.4330127e-03 0.0000000e+00 
7.0000000e-03 7.5980762e-03 0.0000000e+00 
5.5000000e-03 5.0000000e-03 0.0000000e+00 
7.5000000e-03 1.0000000e-02 0.0000000e+00 
7.2500000e-03 8.0310889e-03 0.0000000e+00 
7.5000000e-03 9.3301270e-03 0.0000000e+00 
7.5000000e-03 8.4641016e-03 0.0000000e+00 
6.7500000e-03 6.2990381e-03 0.0000000e+00 
6.5000000e-03 5.8660254e-03 0.0000000e+00 
7.0000000e-03 6.7320508e-03 0.0000000e+00 
6.2500000e-03 5.4330127e-03 0.0000000e+00 
7.2500000e-03 7.1650635e-03 0.0000000e+00 
6.0000000e-03 5.0000000e-03 0.0000000e+00 
7.7500000e-03 8.8971143e-03 0.0000000e+00 
7.5000000e-03 7.5980762e-03 0.0000000e+00 
7.7500000e-03 8.0310889e-03 0.0000000e+00 
8.0000000e-03 1.0000000e-02 0.0000000e+00 
8.0000000e-03 9.3301270e-03 0.0000000e+00 
7.0000000e-03 5.8660254e-03 0.0000000e+00 
7.2500000e-03 6.2990381e-03 0.0000000e+00 
8.0000000e-03 8.4641016e-03 0.0000000e+00 
6.7500000e-03 5.4330127e-03 0.0000000e+00 
7.5000000e-03 6.7320508e-03 0.0000000e+00 
6.5000000e-03 5.0000000e-03 0.0000000e+00 
7.7500000e-03 7.1650635e-03 0.0000000e+00 
8.2500000e-03 8.8971143e-03 0.0000000e+00 
8.0000000e-03 7.5980762e-03 0.0000000e+00 
8.2500000e-03 8.0310889e-03 0.0000000e+00 
8.5000000e-03 1.0000000e-02 0.0000000e+00 
8.5000000e-03 9.3301270e-03 0.0000000e+00 
7.5000000e-03 5.8660254e-03 0.0000000e+00 
7.2500000e-03 5.4330127e-03 0.0000000e+00 
7.7500000e-03 6.2990381e-03 0.0000000e+00 
7.0000000e-03 5.0000000e-03 0.0000000e+00 
8.5000000e-03 8.4641016e-03 0.0000000e+00 
8.0000000e-03 6.7320508e-03 0.0000000e+00 
8.2500000e-03 7.1650635e-03 0.0000000e+00 
8.7500000e-03 8.8971143e-03 0.0000000e+00 
8.5000000e-03 7.5980762e-03 0.0000000e+00 
8.7500000e-03 8.0310889e-03 0.0000000e+00 
7.7500000e-03 5.4330127e-03 0.0000000e+00 
9.0000000e-03 1.0000000e-02 0.0000000e+00 
8.0000000e-03 5.8660254e-03 0.0000000e+00 
7.5000000e-03 5.0000000e-03 0.0000000e+00 
9.0000000e-03 9.3301270e-03 0.0000000e+00 
8.2500000e-03 6.2990381e-03 0.0000000e+00 
8.5000000e-03 6.7320508e-03 0.0000000e+00 
9.0000000e-03 8.4641016e-03 0.0000000e+00 
8.7500000e-03 7.1650635e-03 0.0000000e+00 
9.0000000e-03 7.5980762e-03 0.0000000e+00 
9.2500000e-03 8.8971143e-03 0.0000000e+00 
8.2500000e-03 5.4330127e-03 0.0000000e+00 
8.0000000e-03 5.0000000e-03 0.0000000e+00 
8.5000000e-03 5.8660254e-03 0.0000000e+00 
9.2500000e-03 8.0310889e-03 0.0000000e+00 
9.5000000e-03 1.0000000e-02 0.0000000e+00 
8.7500000e-03 6.2990381e-03 0.0000000e+00 
9.5000000e-03 9.3301270e-03 0.0000000e+00 
9.0000000e-03 6.7320508e-03 0.0000000e+00 
9.5000000e-03 8.4641016e-03 0.0000000e+00 
9.2500000e-03 7.1650635e-03 0.0000000e+00 
9.5000000e-03 7.5980762e-03 0.0000000e+00 
9.7500000e-03 8.8971143e-03 0.0000000e+00 
8.5000000e-03 5.0000000e-03 0.0000000e+00 
8.7500000e-03 5.4330127e-03 0.0000000e+00 
9.0000000e-03 5.8660254e-03 0.0000000e+00 
9.7500000e-03 8.0310889e-03 0.0000000e+00 
[...]
POINT_DATA 4325
FIELD FieldData 2
TIME_AVERAGED_VELOCITY 3 4325  float
0.0000000e+00 0.0000000e+00 0.0000000e+00 
0.0000000e+00 0.0000000e+00 0.0000000e+00 
1.0000000e-02 0.0000000e+00 0.0000000e+00 
9.8595064e-03 -7.5857028e-04 0.0000000e+00 
0.0000000e+00 0.0000000e+00 0.0000000e+00 
1.0000000e-02 0.0000000e+00 0.0000000e+00 
8.2219019e-03 -4.9235733e-04 0.0000000e+00 
1.0618259e-02 -1.0392029e-03 0.0000000e+00 
0.0000000e+00 0.0000000e+00 0.0000000e+00 
1.0000000e-02 0.0000000e+00 0.0000000e+00 
1.0091570e-02 -3.5539778e-04 0.0000000e+00 
8.8084415e-03 -6.8245801e-04 0.0000000e+00 
1.0728901e-02 -8.6174199e-04 0.0000000e+00 
1.0559284e-02 -7.0874374e-04 0.0000000e+00 
0.0000000e+00 0.0000000e+00 0.0000000e+00 
1.0000000e-02 0.0000000e+00 0.0000000e+00 
1.0679226e-02 -8.3039846e-04 0.0000000e+00 
1.0177626e-02 -2.3736982e-04 0.0000000e+00 
8.3139197e-03 -4.3086025e-04 0.0000000e+00 
1.0910615e-02 -7.1008976e-04 0.0000000e+00 
1.0548872e-02 -3.9147520e-04 0.0000000e+00 
1.0049377e-02 -2.8900574e-05 0.0000000e+00 
0.0000000e+00 0.0000000e+00 0.0000000e+00 
1.0000000e-02 0.0000000e+00 0.0000000e+00 
1.0559732e-02 -6.4712252e-04 0.0000000e+00 
1.1186134e-02 -6.8530626e-04 0.0000000e+00 
7.8728957e-03 -2.8730079e-04 0.0000000e+00 
1.0266380e-02 -4.8606363e-05 0.0000000e+00 
1.0927301e-02 -4.1116863e-04 0.0000000e+00 
1.0612607e-02 -8.0884341e-05 0.0000000e+00 
1.1362814e-02 -5.7873089e-04 0.0000000e+00 
1.0161529e-02 1.6033641e-04 0.0000000e+00 
1.0377951e-02 -4.9082564e-04 0.0000000e+00 
1.1290343e-02 -3.9926713e-04 0.0000000e+00 
0.0000000e+00 0.0000000e+00 0.0000000e+00 
1.0000000e-02 0.0000000e+00 0.0000000e+00 
7.5400198e-03 -2.0228472e-04 0.0000000e+00 
1.0478074e-02 2.2639523e-04 0.0000000e+00 
1.1000093e-02 -7.9318191e-05 0.0000000e+00 
1.0080597e-02 2.5547041e-04 0.0000000e+00 
1.0847317e-02 2.5258062e-04 0.0000000e+00 
1.1460020e-02 -4.7043173e-04 0.0000000e+00 
1.1602301e-02 -3.5037901e-04 0.0000000e+00 
1.0434827e-02 4.7749397e-04 0.0000000e+00 
1.0207075e-02 -3.7352561e-04 0.0000000e+00 
1.1382758e-02 -7.6024617e-05 0.0000000e+00 
0.0000000e+00 0.0000000e+00 0.0000000e+00 
1.0000000e-02 0.0000000e+00 0.0000000e+00 
7.2901637e-03 -1.4950669e-04 0.0000000e+00 
1.0801975e-02 5.6758927e-04 0.0000000e+00 
1.1223152e-02 2.4866240e-04 0.0000000e+00 
1.0260958e-02 6.5323860e-04 0.0000000e+00 
1.1854412e-02 -2.9483693e-04 0.0000000e+00 
1.1512779e-02 -3.7699204e-04 0.0000000e+00 
1.1137565e-02 5.5491006e-04 0.0000000e+00 
1.1729721e-02 -6.5791174e-05 0.0000000e+00 
1.0707179e-02 8.3453974e-04 0.0000000e+00 
1.0058968e-02 -2.8803270e-04 0.0000000e+00 
1.1566811e-02 2.2419791e-04 0.0000000e+00 
0.0000000e+00 0.0000000e+00 0.0000000e+00 
1.0000000e-02 0.0000000e+00 0.0000000e+00 
7.1007127e-03 -1.1406676e-04 0.0000000e+00 
1.0887696e-02 7.8278720e-04 0.0000000e+00 
1.1402187e-02 4.9503161e-04 0.0000000e+00 
1.0093398e-02 7.7197460e-04 0.0000000e+00 
1.2056106e-02 -2.4340542e-04 0.0000000e+00 
1.2028751e-02 -5.4745572e-05 0.0000000e+00 
1.0196776e-02 9.3484750e-04 0.0000000e+00 
1.1540592e-02 -3.0209537e-04 0.0000000e+00 
1.1863897e-02 1.9420101e-04 0.0000000e+00 
1.0944439e-02 6.6249293e-04 0.0000000e+00 
9.9357087e-03 -2.2542827e-04 0.0000000e+00 
9.9042368e-03 7.7664440e-04 0.0000000e+00 
1.1602514e-02 4.2041079e-04 0.0000000e+00 
0.0000000e+00 0.0000000e+00 0.0000000e+00 
1.0000000e-02 0.0000000e+00 0.0000000e+00 
6.9544497e-03 -8.9062654e-05 0.0000000e+00 
9.5726984e-03 6.0464001e-04 0.0000000e+00 
1.0933171e-02 5.3804946e-04 0.0000000e+00 
7.5934874e-03 3.7267740e-04 0.0000000e+00 
1.2280640e-02 -4.4834449e-05 0.0000000e+00 
1.2217225e-02 -1.9987136e-04 0.0000000e+00 
1.2112706e-02 1.6434365e-04 0.0000000e+00 
6.8799544e-03 3.9736465e-04 0.0000000e+00 
1.1554748e-02 -2.4335186e-04 0.0000000e+00 
1.1751615e-02 3.4856821e-04 0.0000000e+00 
9.2524634e-03 4.5834332e-04 0.0000000e+00 
9.8342404e-03 -1.7900333e-04 0.0000000e+00 
6.2448007e-03 2.6739264e-04 0.0000000e+00 
1.0889278e-02 4.2870457e-04 0.0000000e+00 
0.0000000e+00 0.0000000e+00 0.0000000e+00 
0.0000000e+00 0.0000000e+00 0.0000000e+00 
0.0000000e+00 0.0000000e+00 0.0000000e+00 
6.8394682e-03 -7.0814335e-05 0.0000000e+00 
5.7746702e-03 1.8646146e-04 0.0000000e+00 
0.0000000e+00 0.0000000e+00 0.0000000e+00 
1.2490498e-02 -3.6803842e-05 0.0000000e+00 
8.9780243e-03 3.4546932e-04 0.0000000e+00 
1.2318160e-02 1.3730636e-04 0.0000000e+00 
1.2346587e-02 -1.6429536e-04 0.0000000e+00 
1.1862264e-02 2.8577694e-04 0.0000000e+00 
0.0000000e+00 0.0000000e+00 0.0000000e+00 
1.1561397e-02 -1.9751438e-04 0.0000000e+00 
1.0833420e-02 3.3973456e-04 0.0000000e+00 
5.4327014e-03 1.3190057e-04 0.0000000e+00 
9.7508652e-03 -1.4404849e-04 0.0000000e+00 
0.0000000e+00 0.0000000e+00 0.0000000e+00 
8.7523840e-03 2.6150955e-04 0.0000000e+00 
0.0000000e+00 0.0000000e+00 0.0000000e+00 
1.2486941e-02 1.1386502e-04 0.0000000e+00 
6.7475852e-03 -5.7169206e-05 0.0000000e+00 
1.2664624e-02 -3.0530100e-05 0.0000000e+00 
1.1945043e-02 2.3340475e-04 0.0000000e+00 
0.0000000e+00 0.0000000e+00 0.0000000e+00 
5.1832935e-03 9.5208717e-05 0.0000000e+00 
1.2451113e-02 -1.3561096e-04 0.0000000e+00 
1.0776393e-02 2.6975002e-04 0.0000000e+00 
1.1563965e-02 -1.6160849e-04 0.0000000e+00 
8.5705247e-03 2.0009520e-04 0.0000000e+00 
0.0000000e+00 0.0000000e+00 0.0000000e+00 
9.6821781e-03 -1.1730127e-04 0.0000000e+00 
4.9991313e-03 7.0156030e-05 0.0000000e+00 
1.2625604e-02 9.4022859e-05 0.0000000e+00 
1.2007891e-02 1.9064474e-04 0.0000000e+00 
0.0000000e+00 0.0000000e+00 0.0000000e+00 
1.2808995e-02 -2.5683829e-05 0.0000000e+00 
1.0723407e-02 2.1545685e-04 0.0000000e+00 
6.6731221e-03 -4.6745990e-05 0.0000000e+00 
1.2536140e-02 -1.1253723e-04 0.0000000e+00 
0.0000000e+00 0.0000000e+00 0.0000000e+00 
8.4248447e-03 1.5526189e-04 0.0000000e+00 
1.1564358e-02 -1.3326028e-04 0.0000000e+00 
4.8607589e-03 5.2923691e-05 0.0000000e+00 
9.6253495e-03 -9.6498289e-05 0.0000000e+00 
1.2056500e-02 1.5602129e-04 0.0000000e+00 
0.0000000e+00 0.0000000e+00 0.0000000e+00 
1.2739811e-02 7.7434379e-05 0.0000000e+00 
1.0676545e-02 1.7338355e-04 0.0000000e+00 
1.2928814e-02 -2.1929336e-05 0.0000000e+00 
8.3080471e-03 1.2227257e-04 0.0000000e+00 
0.0000000e+00 0.0000000e+00 0.0000000e+00 
6.6120648e-03 -3.8625534e-05 0.0000000e+00 
1.2605735e-02 -9.3924924e-05 0.0000000e+00 
4.7547668e-03 4.0856540e-05 0.0000000e+00 
1.1563630e-02 -1.1066581e-04 0.0000000e+00 
0.0000000e+00 0.0000000e+00 0.0000000e+00 
1.2094833e-02 1.2800980e-04 0.0000000e+00 
1.0636262e-02 1.4057841e-04 0.0000000e+00 
9.5781013e-03 -8.0067749e-05 0.0000000e+00 
1.2834212e-02 6.3645415e-05 0.0000000e+00 
8.2139845e-03 9.7635021e-05 0.0000000e+00 
1.3028428e-02 -1.8997817e-05 0.0000000e+00 
4.6720158e-03 3.2202888e-05 0.0000000e+00 
0.0000000e+00 0.0000000e+00 0.0000000e+00 
1.2663005e-02 -7.8838744e-05 0.0000000e+00 
6.5615149e-03 -3.2187607e-05 0.0000000e+00 
0.0000000e+00 0.0000000e+00 0.0000000e+00 
1.1562355e-02 -9.2488067e-05 0.0000000e+00 
1.0602227e-02 1.1474151e-04 0.0000000e+00 
1.2125623e-02 1.0527571e-04 0.0000000e+00 
8.1377863e-03 7.8891369e-05 0.0000000e+00 
1.2912538e-02 5.2200575e-05 0.0000000e+00 
9.5386201e-03 -6.6916526e-05 0.0000000e+00 
4.6062961e-03 2.5822655e-05 0.0000000e+00 
1.3111406e-02 -1.6692069e-05 0.0000000e+00 
0.0000000e+00 0.0000000e+00 0.0000000e+00 
0.0000000e+00 0.0000000e+00 0.0000000e+00 
1.2710338e-02 -6.6551037e-05 0.0000000e+00 
6.5193285e-03 -2.7011517e-05 0.0000000e+00 
1.1560832e-02 -7.7747229e-05 0.0000000e+00 
1.0573783e-02 9.4157122e-05 0.0000000e+00 
8.0756960e-03 6.4351168e-05 0.0000000e+00 
1.2150761e-02 8.6728946e-05 0.0000000e+00 
4.5533550e-03 2.0984583e-05 0.0000000e+00 
1.2977761e-02 4.2688928e-05 0.0000000e+00 
0.0000000e+00 0.0000000e+00 0.0000000e+00 
9.5054618e-03 -5.6282627e-05 0.0000000e+00 
1.3180658e-02 -1.4874843e-05 0.0000000e+00 
1.2749589e-02 -5.6508179e-05 0.0000000e+00 
0.0000000e+00 0.0000000e+00 0.0000000e+00 
6.4838758e-03 -2.2811186e-05 0.0000000e+00 
8.0248416e-03 5.2861430e-05 0.0000000e+00 
1.0550183e-02 7.7568433e-05 0.0000000e+00 
1.1559211e-02 -6.5729103e-05 0.0000000e+00 
4.5102328e-03 1.7219464e-05 0.0000000e+00 
1.2171572e-02 7.1506738e-05 0.0000000e+00 
0.0000000e+00 0.0000000e+00 0.0000000e+00 
1.3032255e-02 3.4756951e-05 0.0000000e+00 
9.4774694e-03 -4.7635550e-05 0.0000000e+00 
1.3238559e-02 -1.3454541e-05 0.0000000e+00 
1.2782220e-02 -4.8294390e-05 0.0000000e+00 
0.0000000e+00 0.0000000e+00 0.0000000e+00 
6.4538761e-03 -1.9394257e-05 0.0000000e+00 
7.9830238e-03 4.3632712e-05 0.0000000e+00 
4.4748223e-03 1.4223458e-05 0.0000000e+00 
1.0530711e-02 6.4057540e-05 0.0000000e+00 
0.0000000e+00 0.0000000e+00 0.0000000e+00 
1.1557561e-02 -5.5916232e-05 0.0000000e+00 
1.2189006e-02 5.8934153e-05 0.0000000e+00 
1.3077923e-02 2.8107629e-05 0.0000000e+00 
9.4537090e-03 -4.0614133e-05 0.0000000e+00 
1.3287053e-02 -1.2372281e-05 0.0000000e+00 
1.2809403e-02 -4.1599662e-05 0.0000000e+00 
4.4455845e-03 1.1796059e-05 0.0000000e+00 
0.0000000e+00 0.0000000e+00 0.0000000e+00 
7.9485449e-03 3.6117358e-05 0.0000000e+00 
0.0000000e+00 0.0000000e+00 0.0000000e+00 
6.4282738e-03 -1.6639952e-05 0.0000000e+00 
1.0514726e-02 5.2949445e-05 0.0000000e+00 
1.2203760e-02 4.8484053e-05 0.0000000e+00 
1.1555919e-02 -4.7939148e-05 0.0000000e+00 
1.3116310e-02 2.2495096e-05 0.0000000e+00 
1.3327746e-02 -1.1590693e-05 0.0000000e+00 
9.4334311e-03 -3.4997808e-05 0.0000000e+00 
4.4213648e-03 9.8014389e-06 0.0000000e+00 
0.0000000e+00 0.0000000e+00 0.0000000e+00 
7.9200813e-03 2.9927930e-05 0.0000000e+00 
1.2832101e-02 -3.6194648e-05 0.0000000e+00 
0.0000000e+00 0.0000000e+00 0.0000000e+00 
1.0501678e-02 4.3741851e-05 0.0000000e+00 
6.4061221e-03 -1.4491564e-05 0.0000000e+00 
1.2216367e-02 3.9744788e-05 0.0000000e+00 
1.1554328e-02 -4.1546181e-05 0.0000000e+00 
1.3148679e-02 1.7722587e-05 0.0000000e+00 
1.3361980e-02 -1.1073924e-05 0.0000000e+00 
9.4160752e-03 -3.0717106e-05 0.0000000e+00 
0.0000000e+00 0.0000000e+00 0.0000000e+00 
4.4012758e-03 8.1446513e-06 0.0000000e+00 
7.8965884e-03 2.4783843e-05 0.0000000e+00 
1.2851134e-02 -3.1882081e-05 0.0000000e+00 
1.0491102e-02 3.6055708e-05 0.0000000e+00 
0.0000000e+00 0.0000000e+00 0.0000000e+00 
6.3864123e-03 -1.2935487e-05 0.0000000e+00 
1.2227238e-02 3.2395014e-05 0.0000000e+00 
1.1552906e-02 -3.6531599e-05 0.0000000e+00 
1.3176068e-02 1.3638317e-05 0.0000000e+00 
1.3390881e-02 -1.0784334e-05 0.0000000e+00 
0.0000000e+00 0.0000000e+00 0.0000000e+00 
9.4013948e-03 -2.7853682e-05 0.0000000e+00 
4.3846204e-03 6.7569280e-06 0.0000000e+00 
7.8772333e-03 2.0476418e-05 0.0000000e+00 
1.0482614e-02 2.9600393e-05 0.0000000e+00 
1.2867212e-02 -2.8536914e-05 0.0000000e+00 
0.0000000e+00 0.0000000e+00 0.0000000e+00 
1.2236698e-02 2.6187141e-05 0.0000000e+00 
6.3676412e-03 -1.1924229e-05 0.0000000e+00 
1.1551893e-02 -3.2904932e-05 0.0000000e+00 
1.3199325e-02 1.0157329e-05 0.0000000e+00 
0.0000000e+00 0.0000000e+00 0.0000000e+00 
4.3708418e-03 5.5868877e-06 0.0000000e+00 
1.3415429e-02 -1.0575845e-05 0.0000000e+00 
9.3897446e-03 -2.7396602e-05 0.0000000e+00 
7.8613442e-03 1.6845646e-05 0.0000000e+00 
1.0475887e-02 2.4149868e-05 0.0000000e+00 
1.2881027e-02 -2.5547426e-05 0.0000000e+00 
1.2244983e-02 2.0938801e-05 0.0000000e+00 
0.0000000e+00 0.0000000e+00 0.0000000e+00 
6.3455633e-03 -1.0018099e-05 0.0000000e+00 
1.1552198e-02 -2.9138886e-05 0.0000000e+00 
1.3219074e-02 7.2628134e-06 0.0000000e+00 
0.0000000e+00 0.0000000e+00 0.0000000e+00 
4.3594919e-03 4.5898142e-06 0.0000000e+00 
1.3436295e-02 -1.0166214e-05 0.0000000e+00 
7.8483752e-03 1.3749024e-05 0.0000000e+00 
9.3819621e-03 -2.3630704e-05 0.0000000e+00 
1.0470638e-02 1.9475956e-05 0.0000000e+00 
1.2892575e-02 -2.3113964e-05 0.0000000e+00 
1.2252226e-02 1.6371071e-05 0.0000000e+00 
0.0000000e+00 0.0000000e+00 0.0000000e+00 
6.3016221e-03 3.8595756e-05 0.0000000e+00 
1.3235593e-02 4.7683038e-06 0.0000000e+00 
1.1551946e-02 -2.6120549e-05 0.0000000e+00 
0.0000000e+00 0.0000000e+00 0.0000000e+00 
4.3502168e-03 3.7343271e-06 0.0000000e+00 
1.3454343e-02 -1.0694197e-05 0.0000000e+00 
7.8379037e-03 1.1080646e-05 0.0000000e+00 
9.3608297e-03 8.0504235e-06 0.0000000e+00 
1.0466677e-02 1.5449617e-05 0.0000000e+00 
1.2901806e-02 -2.0433229e-05 0.0000000e+00 
1.2258546e-02 1.2675941e-05 0.0000000e+00 
0.0000000e+00 0.0000000e+00 0.0000000e+00 
4.6665454e-03 -9.6160554e-07 0.0000000e+00 
0.0000000e+00 0.0000000e+00 0.0000000e+00 
1.3249324e-02 3.5063415e-06 0.0000000e+00 
1.1559260e-02 -1.6303600e-05 0.0000000e+00 
4.3427434e-03 2.9535751e-06 0.0000000e+00 
7.8295778e-03 8.6005671e-06 0.0000000e+00 
1.3470324e-02 -3.0982880e-06 0.0000000e+00 
8.0770505e-03 3.4865255e-06 0.0000000e+00 
1.0463673e-02 1.1476401e-05 0.0000000e+00 
1.2937051e-02 -3.2523311e-05 0.0000000e+00 
1.2263583e-02 7.5471358e-06 0.0000000e+00 
0.0000000e+00 0.0000000e+00 0.0000000e+00 
4.6450079e-03 -1.9025004e-07 0.0000000e+00 
0.0000000e+00 0.0000000e+00 0.0000000e+00 
1.0642230e-02 -2.6215232e-06 0.0000000e+00 
1.3252589e-02 4.2253725e-06 0.0000000e+00 
4.3369437e-03 2.2339622e-06 0.0000000e+00 
7.8233360e-03 6.2669004e-06 0.0000000e+00 
1.3534042e-02 -5.6904654e-05 0.0000000e+00 
8.0469178e-03 -6.9555759e-06 0.0000000e+00 
1.0462826e-02 7.0553542e-06 0.0000000e+00 
1.2389779e-02 1.8767680e-05 0.0000000e+00 
1.2263174e-02 8.6450576e-06 0.0000000e+00 
0.0000000e+00 0.0000000e+00 0.0000000e+00 
0.0000000e+00 0.0000000e+00 0.0000000e+00 
4.6449240e-03 -3.0727654e-07 0.0000000e+00 
1.3295648e-02 -2.0887714e-05 0.0000000e+00 
1.0629728e-02 -6.8420259e-06 0.0000000e+00 
4.3327002e-03 1.4636205e-06 0.0000000e+00 
7.8195772e-03 3.3050960e-06 0.0000000e+00 
1.3514804e-02 -2.7931741e-06 0.0000000e+00 
1.0459368e-02 5.1022082e-06 0.0000000e+00 
8.0473174e-03 -3.9384319e-06 0.0000000e+00 
1.2378047e-02 -3.2393646e-05 0.0000000e+00 
1.2272653e-02 -5.4966105e-06 0.0000000e+00 
0.0000000e+00 0.0000000e+00 0.0000000e+00 
0.0000000e+00 0.0000000e+00 0.0000000e+00 
4.6420727e-03 -1.9834581e-06 0.0000000e+00 
4.3304789e-03 4.6882165e-07 0.0000000e+00 
1.3340705e-02 -4.9271381e-05 0.0000000e+00 
1.0618416e-02 -2.1961278e-05 0.0000000e+00 
7.8165158e-03 2.0910413e-06 0.0000000e+00 
1.3320718e-02 1.3861271e-05 0.0000000e+00 
1.0461893e-02 -4.6963417e-07 0.0000000e+00 
8.0346104e-03 -1.2964667e-05 0.0000000e+00 
1.2378294e-02 -2.0868658e-05 0.0000000e+00 
1.2308475e-02 -2.9397168e-05 0.0000000e+00 
0.0000000e+00 0.0000000e+00 0.0000000e+00 
0.0000000e+00 0.0000000e+00 0.0000000e+00 
4.6349523e-03 -4.8679641e-06 0.0000000e+00 
4.3290454e-03 8.3675291e-07 0.0000000e+00 
1.3311764e-02 1.6333023e-06 0.0000000e+00 
1.0611608e-02 -2.0323507e-05 0.0000000e+00 
7.8151179e-03 2.9595207e-06 0.0000000e+00 
1.3327751e-02 -4.0381863e-05 0.0000000e+00 
1.0480400e-02 -6.1975958e-06 0.0000000e+00 
8.0242555e-03 -1.4469648e-05 0.0000000e+00 
1.2371047e-02 -3.6650595e-05 0.0000000e+00 
1.2336832e-02 -2.8609613e-05 0.0000000e+00 
0.0000000e+00 0.0000000e+00 0.0000000e+00 
4.3272902e-03 4.2545546e-07 0.0000000e+00 
1.3472596e-02 -1.8659363e-05 0.0000000e+00 
0.0000000e+00 0.0000000e+00 0.0000000e+00 
4.6253422e-03 -5.7062116e-06 0.0000000e+00 
1.0599871e-02 -2.9734062e-05 0.0000000e+00 
7.8145090e-03 -3.6926427e-06 0.0000000e+00 
1.3317449e-02 -4.2166089e-05 0.0000000e+00 
1.0542275e-02 -6.6838767e-05 0.0000000e+00 
8.0097403e-03 -1.9743255e-05 0.0000000e+00 
1.2857095e-02 1.1143152e-05 0.0000000e+00 
1.2362692e-02 -4.2372395e-05 0.0000000e+00 
0.0000000e+00 0.0000000e+00 0.0000000e+00 
4.3279683e-03 -1.4766499e-06 0.0000000e+00 
1.3487633e-02 -3.2783177e-05 0.0000000e+00 
0.0000000e+00 0.0000000e+00 0.0000000e+00 
4.6126311e-03 -7.6639650e-06 0.0000000e+00 
1.0585287e-02 -3.7191145e-05 0.0000000e+00 
7.8572069e-03 -3.8471606e-05 0.0000000e+00 
1.3327218e-02 -4.8040835e-05 0.0000000e+00 
1.0513038e-02 3.8059708e-06 0.0000000e+00 
7.9914057e-03 -2.5102065e-05 0.0000000e+00 
1.2867404e-02 -4.5406806e-05 0.0000000e+00 
0.0000000e+00 0.0000000e+00 0.0000000e+00 
1.2355556e-02 -5.2804423e-05 0.0000000e+00 
4.3492247e-03 -1.3460307e-05 0.0000000e+00 
1.3494862e-02 -5.6263512e-05 0.0000000e+00 
0.0000000e+00 0.0000000e+00 0.0000000e+00 
4.5962085e-03 -9.7518687e-06 0.0000000e+00 
1.0568504e-02 -4.6730699e-05 0.0000000e+00 
7.8851992e-03 -1.3681430e-05 0.0000000e+00 
1.1417690e-02 -1.6208999e-05 0.0000000e+00 
1.3325733e-02 -6.6649486e-05 0.0000000e+00 
7.9685293e-03 -3.1761592e-05 0.0000000e+00 
1.2867882e-02 -5.2541317e-05 0.0000000e+00 
0.0000000e+00 0.0000000e+00 0.0000000e+00 
1.2344008e-02 -6.8948586e-05 0.0000000e+00 
4.4032522e-03 -3.9473665e-06 0.0000000e+00 
1.3503496e-02 -7.1944899e-05 0.0000000e+00 
9.1677831e-03 5.0294764e-06 0.0000000e+00 
0.0000000e+00 0.0000000e+00 0.0000000e+00 
4.5753987e-03 -1.2344814e-05 0.0000000e+00 
1.0546076e-02 -6.0140120e-05 0.0000000e+00 
1.1435029e-02 -3.9879977e-05 0.0000000e+00 
1.3323244e-02 -8.6789038e-05 0.0000000e+00 
7.9391161e-03 -4.0581914e-05 0.0000000e+00 
0.0000000e+00 0.0000000e+00 0.0000000e+00 
1.2890943e-02 -7.1257649e-05 0.0000000e+00 
6.0850000e-03 4.8940551e-05 0.0000000e+00 
1.2327931e-02 -8.9078632e-05 0.0000000e+00 
1.3512625e-02 -9.8016369e-05 0.0000000e+00 
9.1982582e-03 -1.3562165e-05 0.0000000e+00 
0.0000000e+00 0.0000000e+00 0.0000000e+00 
4.5489111e-03 -1.5694269e-05 0.0000000e+00 
1.0516800e-02 -7.7043255e-05 0.0000000e+00 
1.1473318e-02 -5.8689744e-05 0.0000000e+00 
1.3318083e-02 -1.1423515e-04 0.0000000e+00 
0.0000000e+00 0.0000000e+00 0.0000000e+00 
7.9014039e-03 -5.1606859e-05 0.0000000e+00 
1.2912044e-02 -9.9805155e-05 0.0000000e+00 
6.1060879e-03 -5.2915024e-06 0.0000000e+00 
1.2305742e-02 -1.1523534e-04 0.0000000e+00 
1.3521335e-02 -1.3136745e-04 0.0000000e+00 
9.2356192e-03 -4.5462233e-05 0.0000000e+00 
0.0000000e+00 0.0000000e+00 0.0000000e+00 
4.5153055e-03 -1.9800618e-05 0.0000000e+00 
1.0478533e-02 -9.8420841e-05 0.0000000e+00 
1.1506772e-02 -9.2486744e-05 0.0000000e+00 
1.3308396e-02 -1.4936743e-04 0.0000000e+00 
0.0000000e+00 0.0000000e+00 0.0000000e+00 
7.8531886e-03 -6.5234901e-05 0.0000000e+00 
1.2935508e-02 -1.3838225e-04 0.0000000e+00 
6.1328285e-03 -2.5527431e-05 0.0000000e+00 
1.2275385e-02 -1.4809073e-04 0.0000000e+00 
9.2741851e-03 -7.4228708e-05 0.0000000e+00 
1.3527948e-02 -1.7478740e-04 0.0000000e+00 
0.0000000e+00 0.0000000e+00 0.0000000e+00 
4.4729533e-03 -2.4756243e-05 0.0000000e+00 
1.0428780e-02 -1.2477766e-04 0.0000000e+00 
1.1545366e-02 -1.3119658e-04 0.0000000e+00 
1.3292577e-02 -1.9381761e-04 0.0000000e+00 
0.0000000e+00 0.0000000e+00 0.0000000e+00 
1.2961033e-02 -1.8677534e-04 0.0000000e+00 
7.7919706e-03 -8.1668393e-05 0.0000000e+00 
6.1794265e-03 -3.9059662e-05 0.0000000e+00 
1.2234320e-02 -1.8878874e-04 0.0000000e+00 
9.3287904e-03 -1.0477788e-04 0.0000000e+00 
1.3531993e-02 -2.2936001e-04 0.0000000e+00 
0.0000000e+00 0.0000000e+00 0.0000000e+00 
4.4201049e-03 -3.0573116e-05 0.0000000e+00 
1.0364569e-02 -1.5665784e-04 0.0000000e+00 
1.1594015e-02 -1.7876798e-04 0.0000000e+00 
1.3268406e-02 -2.4902493e-04 0.0000000e+00 
0.0000000e+00 0.0000000e+00 0.0000000e+00 
1.2990451e-02 -2.4793063e-04 0.0000000e+00 
7.7149673e-03 -1.0101303e-04 0.0000000e+00 
6.2461860e-03 -5.3588918e-05 0.0000000e+00 
1.2179411e-02 -2.3819409e-04 0.0000000e+00 
9.4031862e-03 -1.4321516e-04 0.0000000e+00 
1.3532164e-02 -2.9781844e-04 0.0000000e+00 
0.0000000e+00 0.0000000e+00 0.0000000e+00 
4.3549840e-03 -3.7192244e-05 0.0000000e+00 
1.0282463e-02 -1.9427810e-04 0.0000000e+00 
1.1655725e-02 -2.4044664e-04 0.0000000e+00 
1.3232816e-02 -3.1664217e-04 0.0000000e+00 
0.0000000e+00 0.0000000e+00 0.0000000e+00 
1.3023268e-02 -3.2658977e-04 0.0000000e+00 
6.3381941e-03 -7.3967591e-05 0.0000000e+00 
7.6192585e-03 -1.2307226e-04 0.0000000e+00 
1.2106741e-02 -2.9683475e-04 0.0000000e+00 
9.5023310e-03 -1.9657990e-04 0.0000000e+00 
1.3525350e-02 -3.8323736e-04 0.0000000e+00 
0.0000000e+00 0.0000000e+00 0.0000000e+00 
4.2759762e-03 -4.4419461e-05 0.0000000e+00 
1.0178656e-02 -2.3727230e-04 0.0000000e+00 
1.1731565e-02 -3.2412924e-04 0.0000000e+00 
1.3181251e-02 -3.9786661e-04 0.0000000e+00 
0.0000000e+00 0.0000000e+00 0.0000000e+00 