# vtk DataFile Version 4.0
vtk output
ASCII
DATASET UNSTRUCTURED_GRID
POINTS 4325 float
0.0000000e+00 1.0000000e-02 0.0000000e+00 
5.0000000e-04 1.0000000e-02 0.0000000e+00 
0.0000000e+00 9.5000000e-03 0.0000000e+00 
4.4808610e-04 9.3758330e-03 0.0000000e+00 
1.0000000e-03 1.0000000e-02 0.0000000e+00 
0.0000000e+00 9.0000000e-03 0.0000000e+00 
9.9043040e-04 9.4820508e-03 0.0000000e+00 
6.9808610e-04 8.9472002e-03 0.0000000e+00 
1.5000000e-03 1.0000000e-02 0.0000000e+00 
0.0000000e+00 8.5000000e-03 0.0000000e+00 
5.0000000e-04 8.4641016e-03 0.0000000e+00 
1.5000000e-03 9.3301270e-03 0.0000000e+00 
1.2500000e-03 8.8971143e-03 0.0000000e+00 
1.0000000e-03 8.4641016e-03 0.0000000e+00 
2.0000000e-03 1.0000000e-02 0.0000000e+00 
0.0000000e+00 8.0000000e-03 0.0000000e+00 
1.7500000e-03 8.8971143e-03 0.0000000e+00 
7.5000000e-04 8.0310889e-03 0.0000000e+00 
2.0000000e-03 9.3301270e-03 0.0000000e+00 
1.5000000e-03 8.4641016e-03 0.0000000e+00 
1.2500000e-03 8.0310889e-03 0.0000000e+00 
5.0000000e-04 7.5980762e-03 0.0000000e+00 
2.5000000e-03 1.0000000e-02 0.0000000e+00 
0.0000000e+00 7.5000000e-03 0.0000000e+00 
2.2500000e-03 8.8971143e-03 0.0000000e+00 
2.0000000e-03 8.4641016e-03 0.0000000e+00 
2.5000000e-03 9.3301270e-03 0.0000000e+00 
1.0000000e-03 7.5980762e-03 0.0000000e+00 
1.7500000e-03 8.0310889e-03 0.0000000e+00 
1.5000000e-03 7.5980762e-03 0.0000000e+00 
2.5000000e-03 8.4641016e-03 0.0000000e+00 
7.0833330e-04 7.1375529e-03 0.0000000e+00 
2.7500000e-03 8.8971143e-03 0.0000000e+00 
2.2500000e-03 8.0310889e-03 0.0000000e+00 
3.0000000e-03 1.0000000e-02 0.0000000e+00 
0.0000000e+00 7.0000000e-03 0.0000000e+00 
3.0000000e-03 9.3301270e-03 0.0000000e+00 
1.2500000e-03 7.1650635e-03 0.0000000e+00 
2.0000000e-03 7.5980762e-03 0.0000000e+00 
4.6309520e-04 6.7296002e-03 0.0000000e+00 
1.7500000e-03 7.1650635e-03 0.0000000e+00 
3.0000000e-03 8.4641016e-03 0.0000000e+00 
2.7500000e-03 8.0310889e-03 0.0000000e+00 
1.0000000e-03 6.7320508e-03 0.0000000e+00 
3.2500000e-03 8.8971143e-03 0.0000000e+00 
2.5000000e-03 7.5980762e-03 0.0000000e+00 
3.5000000e-03 1.0000000e-02 0.0000000e+00 
0.0000000e+00 6.5000000e-03 0.0000000e+00 
3.5000000e-03 9.3301270e-03 0.0000000e+00 
1.5000000e-03 6.7320508e-03 0.0000000e+00 
2.2500000e-03 7.1650635e-03 0.0000000e+00 
6.0714290e-04 6.2783972e-03 0.0000000e+00 
3.2500000e-03 8.0310889e-03 0.0000000e+00 
3.5000000e-03 8.4641016e-03 0.0000000e+00 
2.0000000e-03 6.7320508e-03 0.0000000e+00 
3.0000000e-03 7.5980762e-03 0.0000000e+00 
1.2500000e-03 6.2990381e-03 0.0000000e+00 
3.7500000e-03 8.8971143e-03 0.0000000e+00 
2.7500000e-03 7.1650635e-03 0.0000000e+00 
4.0000000e-03 1.0000000e-02 0.0000000e+00 
0.0000000e+00 6.0000000e-03 0.0000000e+00 
4.0000000e-03 9.3301270e-03 0.0000000e+00 
1.7500000e-03 6.2990381e-03 0.0000000e+00 
2.5000000e-03 6.7320508e-03 0.0000000e+00 
4.7142860e-04 5.8154871e-03 0.0000000e+00 
3.7500000e-03 8.0310889e-03 0.0000000e+00 
3.5000000e-03 7.5980762e-03 0.0000000e+00 
1.0000000e-03 5.8660254e-03 0.0000000e+00 
4.0000000e-03 8.4641016e-03 0.0000000e+00 
3.2500000e-03 7.1650635e-03 0.0000000e+00 
2.2500000e-03 6.2990381e-03 0.0000000e+00 
4.2500000e-03 8.8971143e-03 0.0000000e+00 
1.5000000e-03 5.8660254e-03 0.0000000e+00 
3.0000000e-03 6.7320508e-03 0.0000000e+00 
4.5000000e-03 1.0000000e-02 0.0000000e+00 
0.0000000e+00 5.5000000e-03 0.0000000e+00 
4.5000000e-03 9.3301270e-03 0.0000000e+00 
2.0000000e-03 5.8660254e-03 0.0000000e+00 
2.7500000e-03 6.2990381e-03 0.0000000e+00 
7.0357140e-04 5.4357542e-03 0.0000000e+00 
4.0000000e-03 7.5980762e-03 0.0000000e+00 
4.2500000e-03 8.0310889e-03 0.0000000e+00 
3.7500000e-03 7.1650635e-03 0.0000000e+00 
1.2500000e-03 5.4330127e-03 0.0000000e+00 
4.5000000e-03 8.4641016e-03 0.0000000e+00 
3.5000000e-03 6.7320508e-03 0.0000000e+00 
2.5000000e-03 5.8660254e-03 0.0000000e+00 
4.7500000e-03 8.8971143e-03 0.0000000e+00 
1.7500000e-03 5.4330127e-03 0.0000000e+00 
3.2500000e-03 6.2990381e-03 0.0000000e+00 
5.0000000e-03 1.0000000e-02 0.0000000e+00 
0.0000000e+00 5.0000000e-03 0.0000000e+00 
5.0000000e-04 5.0000000e-03 0.0000000e+00 
5.0000000e-03 9.3301270e-03 0.0000000e+00 
2.2500000e-03 5.4330127e-03 0.0000000e+00 
1.0000000e-03 5.0000000e-03 0.0000000e+00 
4.5000000e-03 7.5980762e-03 0.0000000e+00 
3.0000000e-03 5.8660254e-03 0.0000000e+00 
4.2500000e-03 7.1650635e-03 0.0000000e+00 
4.7500000e-03 8.0310889e-03 0.0000000e+00 
4.0000000e-03 6.7320508e-03 0.0000000e+00 
1.5000000e-03 5.0000000e-03 0.0000000e+00 
5.0000000e-03 8.4641016e-03 0.0000000e+00 
3.7500000e-03 6.2990381e-03 0.0000000e+00 
2.7500000e-03 5.4330127e-03 0.0000000e+00 
5.2500000e-03 8.8971143e-03 0.0000000e+00 
2.0000000e-03 5.0000000e-03 0.0000000e+00 
3.5000000e-03 5.8660254e-03 0.0000000e+00 
5.5000000e-03 1.0000000e-02 0.0000000e+00 
4.7500000e-03 7.1650635e-03 0.0000000e+00 
5.5000000e-03 9.3301270e-03 0.0000000e+00 
5.0000000e-03 7.5980762e-03 0.0000000e+00 
4.5000000e-03 6.7320508e-03 0.0000000e+00 
2.5000000e-03 5.0000000e-03 0.0000000e+00 
3.2500000e-03 5.4330127e-03 0.0000000e+00 
5.2500000e-03 8.0310889e-03 0.0000000e+00 
4.2500000e-03 6.2990381e-03 0.0000000e+00 
5.5000000e-03 8.4641016e-03 0.0000000e+00 
4.0000000e-03 5.8660254e-03 0.0000000e+00 
3.0000000e-03 5.0000000e-03 0.0000000e+00 
5.7500000e-03 8.8971143e-03 0.0000000e+00 
3.7500000e-03 5.4330127e-03 0.0000000e+00 
5.2500000e-03 7.1650635e-03 0.0000000e+00 
5.0000000e-03 6.7320508e-03 0.0000000e+00 
6.0000000e-03 1.0000000e-02 0.0000000e+00 
5.5000000e-03 7.5980762e-03 0.0000000e+00 
4.7500000e-03 6.2990381e-03 0.0000000e+00 
6.0000000e-03 9.3301270e-03 0.0000000e+00 
5.7500000e-03 8.0310889e-03 0.0000000e+00 
3.5000000e-03 5.0000000e-03 0.0000000e+00 
4.5000000e-03 5.8660254e-03 0.0000000e+00 
6.0000000e-03 8.4641016e-03 0.0000000e+00 
4.2500000e-03 5.4330127e-03 0.0000000e+00 
6.2500000e-03 8.8971143e-03 0.0000000e+00 
5.5000000e-03 6.7320508e-03 0.0000000e+00 
4.0000000e-03 5.0000000e-03 0.0000000e+00 
5.7500000e-03 7.1650635e-03 0.0000000e+00 
5.2500000e-03 6.2990381e-03 0.0000000e+00 
6.0000000e-03 7.5980762e-03 0.0000000e+00 
5.0000000e-03 5.8660254e-03 0.0000000e+00 
6.5000000e-03 1.0000000e-02 0.0000000e+00 
6.5000000e-03 9.3301270e-03 0.0000000e+00 
6.2500000e-03 8.0310889e-03 0.0000000e+00 
4.7500000e-03 5.4330127e-03 0.0000000e+00 
6.5000000e-03 8.4641016e-03 0.0000000e+00 
4.5000000e-03 5.0000000e-03 0.0000000e+00 
6.0000000e-03 6.7320508e-03 0.0000000e+00 
5.7500000e-03 6.2990381e-03 0.0000000e+00 
6.7500000e-03 8.8971143e-03 0.0000000e+00 
6.2500000e-03 7.1650635e-03 0.0000000e+00 
5.5000000e-03 5.8660254e-03 0.0000000e+00 
6.5000000e-03 7.5980762e-03 0.0000000e+00 
5.2500000e-03 5.4330127e-03 0.0000000e+00 
7.0000000e-03 1.0000000e-02 0.0000000e+00 
6.7500000e-03 8.0310889e-03 0.0000000e+00 
7.0000000e-03 9.3301270e-03 0.0000000e+00 
5.0000000e-03 5.0000000e-03 0.0000000e+00 
7.0000000e-03 8.4641016e-03 0.0000000e+00 
6.2500000e-03 6.2990381e-03 0.0000000e+00 
6.5000000e-03 6.7320508e-03 0.0000000e+00 
6.0000000e-03 5.8660254e-03 0.0000000e+00 
6.7500000e-03 7.1650635e-03 0.0000000e+00 
7.2500000e-03 8.8971143e-03 0.0000000e+00 
5.7500000e-03 5.4330127e-03 0.0000000e+00 
7.0000000e-03 7.5980762e-03 0.0000000e+00 
5.5000000e-03 5.0000000e-03 0.0000000e+00 
7.5000000e-03 1.0000000e-02 0.0000000e+00 
7.2500000e-03 8.0310889e-03 0.0000000e+00 
7.5000000e-03 9.3301270e-03 0.0000000e+00 
7.5000000e-03 8.4641016e-03 0.0000000e+00 
6.7500000e-03 6.2990381e-03 0.0000000e+00 
6.5000000e-03 5.8660254e-03 0.0000000e+00 
7.0000000e-03 6.7320508e-03 0.0000000e+00 
6.2500000e-03 5.4330127e-03 0.0000000e+00 
7.2500000e-03 7.1650635e-03 0.0000000e+00 
6.0000000e-03 5.0000000e-03 0.0000000e+00 
7.7500000e-03 8.8971143e-03 0.0000000e+00 
7.5000000e-03 7.5980762e-03 0.0000000e+00 
7.7500000e-03 8.0310889e-03 0.0000000e+00 
8.0000000e-03 1.0000000e-02 0.0000000e+00 
8.0000000e-03 9.3301270e-03 0.0000000e+00 
7.0000000e-03 5.8660254e-03 0.0000000e+00 
7.2500000e-03 6.2990381e-03 0.0000000e+00 
8.0000000e-03 8.4641016e-03 0.0000000e+00 
6.7500000e-03 5.4330127e-03 0.0000000e+00 
7.5000000e-03 6.7320508e-03 0.0000000e+00 
6.5000000e-03 5.0000000e-03 0.0000000e+00 
7.7500000e-03 7.1650635e-03 0.0000000e+00 
8.2500000e-03 8.8971143e-03 0.0000000e+00 
8.0000000e-03 7.5980762e-03 0.0000000e+00 
8.2500000e-03 8.0310889e-03 0.0000000e+00 
8.5000000e-03 1.0000000e-02 0.0000000e+00 
8.5000000e-03 9.3301270e-03 0.0000000e+00 
7.5000000e-03 5.8660254e-03 0.0000000e+00 
7.2500000e-03 5.4330127e-03 0.0000000e+00 
7.7500000e-03 6.2990381e-03 0.0000000e+00 
7.0000000e-03 5.0000000e-03 0.0000000e+00 
8.5000000e-03 8.4641016e-03 0.0000000e+00 
8.0000000e-03 6.7320508e-03 0.0000000e+00 
8.2500000e-03 7.1650635e-03 0.0000000e+00 
8.7500000e-03 8.8971143e-03 0.0000000e+00 
8.5000000e-03 7.5980762e-03 0.0000000e+00 
8.7500000e-03 8.0310889e-03 0.0000000e+00 
7.7500000e-03 5.4330127e-03 0.0000000e+00 
9.0000000e-03 1.0000000e-02 0.0000000e+00 
8.0000000e-03 5.8660254e-03 0.0000000e+00 
7.5000000e-03 5.0000000e-03 0.0000000e+00 
9.0000000e-03 9.3301270e-03 0.0000000e+00 
8.2500000e-03 6.2990381e-03 0.0000000e+00 
8.5000000e-03 6.7320508e-03 0.0000000e+00 
9.0000000e-03 8.4641016e-03 0.0000000e+00 
8.7500000e-03 7.1650635e-03 0.0000000e+00 
9.0000000e-03 7.5980762e-03 0.0000000e+00 
9.2500000e-03 8.8971143e-03 0.0000000e+00 
8.2500000e-03 5.4330127e-03 0.0000000e+00 
8.0000000e-03 5.0000000e-03 0.0000000e+00 
8.5000000e-03 5.8660254e-03 0.0000000e+00 
9.2500000e-03 8.0310889e-03 0.0000000e+00 
9.5000000e-03 1.0000000e-02 0.0000000e+00 
8.7500000e-03 6.2990381e-03 0.0000000e+00 
9.5000000e-03 9.3301270e-03 0.0000000e+00 
9.0000000e-03 6.7320508e-03 0.0000000e+00 
9.5000000e-03 8.4641016e-03 0.0000000e+00 
9.2500000e-03 7.1650635e-03 0.0000000e+00 
9.5000000e-03 7.5980762e-03 0.0000000e+00 
9.7500000e-03 8.8971143e-03 0.0000000e+00 
8.5000000e-03 5.0000000e-03 0.0000000e+00 
8.7500000e-03 5.4330127e-03 0.0000000e+00 
9.0000000e-03 5.8660254e-03 0.0000000e+00 
9.7500000e-03 8.0310889e-03 0.0000000e+00 
[...]
POINT_DATA 4325
FIELD FieldData 2
TIME_AVERAGED_VELOCITY 3 4325  float
0.0000000e+00 0.0000000e+00 0.0000000e+00 
0.0000000e+00 0.0000000e+00 0.0000000e+00 
1.0000000e-02 0.0000000e+00 0.0000000e+00 
9.6912340e-03 -6.5083322e-04 0.0000000e+00 
0.0000000e+00 0.0000000e+00 0.0000000e+00 
1.0000000e-02 0.0000000e+00 0.0000000e+00 
8.0538533e-03 -4.7193560e-04 0.0000000e+00 
1.0493658e-02 -9.4204453e-04 0.0000000e+00 
0.0000000e+00 0.0000000e+00 0.0000000e+00 
1.0000000e-02 0.0000000e+00 0.0000000e+00 
1.0108452e-02 -3.5217874e-04 0.0000000e+00 
8.7041444e-03 -6.8260234e-04 0.0000000e+00 
1.0617169e-02 -8.1679331e-04 0.0000000e+00 
1.0517051e-02 -6.7191183e-04 0.0000000e+00 
0.0000000e+00 0.0000000e+00 0.0000000e+00 
1.0000000e-02 0.0000000e+00 0.0000000e+00 
1.0581474e-02 -8.0132707e-04 0.0000000e+00 
1.0190714e-02 -2.4152546e-04 0.0000000e+00 
8.2443269e-03 -4.5672050e-04 0.0000000e+00 
1.0850702e-02 -6.8838688e-04 0.0000000e+00 
1.0537328e-02 -3.7862275e-04 0.0000000e+00 
1.0055153e-02 -2.7032357e-05 0.0000000e+00 
0.0000000e+00 0.0000000e+00 0.0000000e+00 
1.0000000e-02 0.0000000e+00 0.0000000e+00 
1.0475093e-02 -6.3795319e-04 0.0000000e+00 
1.1115446e-02 -6.6588446e-04 0.0000000e+00 
7.8313405e-03 -3.1373253e-04 0.0000000e+00 
1.0269405e-02 -5.1495506e-05 0.0000000e+00 
1.0902084e-02 -4.0147050e-04 0.0000000e+00 
1.0608234e-02 -7.8380696e-05 0.0000000e+00 
1.1292912e-02 -5.6815071e-04 0.0000000e+00 
1.0159782e-02 1.5560021e-04 0.0000000e+00 
1.0312783e-02 -4.8858494e-04 0.0000000e+00 
1.1253836e-02 -3.8948121e-04 0.0000000e+00 
0.0000000e+00 0.0000000e+00 0.0000000e+00 
1.0000000e-02 0.0000000e+00 0.0000000e+00 
7.5068965e-03 -2.2176418e-04 0.0000000e+00 
1.0470467e-02 2.2013111e-04 0.0000000e+00 
1.0986408e-02 -7.8248291e-05 0.0000000e+00 
1.0086182e-02 2.4843803e-04 0.0000000e+00 
1.0830348e-02 2.4680991e-04 0.0000000e+00 
1.1395323e-02 -4.6347352e-04 0.0000000e+00 
1.1558342e-02 -3.4299673e-04 0.0000000e+00 
1.0410665e-02 4.6344086e-04 0.0000000e+00 
1.0152915e-02 -3.7300347e-04 0.0000000e+00 
1.1359677e-02 -7.4705442e-05 0.0000000e+00 
0.0000000e+00 0.0000000e+00 0.0000000e+00 
1.0000000e-02 0.0000000e+00 0.0000000e+00 
7.2594374e-03 -1.6266831e-04 0.0000000e+00 
1.0762654e-02 5.5132248e-04 0.0000000e+00 
1.1197122e-02 2.4255499e-04 0.0000000e+00 
1.0224914e-02 6.0848367e-04 0.0000000e+00 
1.1806487e-02 -2.8862601e-04 0.0000000e+00 
1.1453401e-02 -3.7238200e-04 0.0000000e+00 
1.1086814e-02 5.4214646e-04 0.0000000e+00 
1.1698166e-02 -6.4697310e-05 0.0000000e+00 
1.0627624e-02 7.9823330e-04 0.0000000e+00 
1.0011647e-02 -2.8845459e-04 0.0000000e+00 
1.1533647e-02 2.1883659e-04 0.0000000e+00 
0.0000000e+00 0.0000000e+00 0.0000000e+00 
1.0000000e-02 0.0000000e+00 0.0000000e+00 
7.0700700e-03 -1.2390393e-04 0.0000000e+00 
1.0803515e-02 7.6133775e-04 0.0000000e+00 
1.1348436e-02 4.8521818e-04 0.0000000e+00 
9.9950161e-03 6.8770961e-04 0.0000000e+00 
1.2006403e-02 -2.3819348e-04 0.0000000e+00 
1.1990580e-02 -5.2753243e-05 0.0000000e+00 
1.0049784e-02 8.6550957e-04 0.0000000e+00 
1.1486235e-02 -2.9977290e-04 0.0000000e+00 
1.1825279e-02 1.9043802e-04 0.0000000e+00 
1.0869560e-02 6.5264280e-04 0.0000000e+00 
9.8922150e-03 -2.2748037e-04 0.0000000e+00 
9.8020273e-03 7.5822806e-04 0.0000000e+00 
1.1549365e-02 4.1338410e-04 0.0000000e+00 
0.0000000e+00 0.0000000e+00 0.0000000e+00 
1.0000000e-02 0.0000000e+00 0.0000000e+00 
6.9227761e-03 -9.7514771e-05 0.0000000e+00 
9.5006538e-03 6.0593883e-04 0.0000000e+00 
1.0869259e-02 5.3323219e-04 0.0000000e+00 
7.4730063e-03 3.0709896e-04 0.0000000e+00 
1.2238580e-02 -4.1401619e-05 0.0000000e+00 
1.2168295e-02 -1.9599605e-04 0.0000000e+00 
1.2070778e-02 1.6396103e-04 0.0000000e+00 
6.7967032e-03 4.0330664e-04 0.0000000e+00 
1.1505122e-02 -2.4370569e-04 0.0000000e+00 
1.1700723e-02 3.4555446e-04 0.0000000e+00 
9.2020432e-03 4.6440268e-04 0.0000000e+00 
9.7926341e-03 -1.8278251e-04 0.0000000e+00 
6.2159995e-03 2.9941322e-04 0.0000000e+00 
1.0834909e-02 4.2766316e-04 0.0000000e+00 
0.0000000e+00 0.0000000e+00 0.0000000e+00 
0.0000000e+00 0.0000000e+00 0.0000000e+00 
0.0000000e+00 0.0000000e+00 0.0000000e+00 
6.8061460e-03 -7.8465124e-05 0.0000000e+00 
5.7582672e-03 2.1132548e-04 0.0000000e+00 
0.0000000e+00 0.0000000e+00 0.0000000e+00 
1.2448034e-02 -3.2310429e-05 0.0000000e+00 
8.9392981e-03 3.5199560e-04 0.0000000e+00 
1.2275505e-02 1.4102844e-04 0.0000000e+00 
1.2300781e-02 -1.6230021e-04 0.0000000e+00 
1.1814449e-02 2.8821471e-04 0.0000000e+00 
0.0000000e+00 0.0000000e+00 0.0000000e+00 
1.1515990e-02 -2.0020486e-04 0.0000000e+00 
1.0786152e-02 3.4315549e-04 0.0000000e+00 
5.4186600e-03 1.4960382e-04 0.0000000e+00 
9.7097198e-03 -1.4862422e-04 0.0000000e+00 
0.0000000e+00 0.0000000e+00 0.0000000e+00 
8.7196900e-03 2.6874300e-04 0.0000000e+00 
0.0000000e+00 0.0000000e+00 0.0000000e+00 
1.2446041e-02 1.2038529e-04 0.0000000e+00 
6.7126862e-03 -6.3707567e-05 0.0000000e+00 
1.2624782e-02 -2.6395709e-05 0.0000000e+00 
1.1900524e-02 2.4075774e-04 0.0000000e+00 
0.0000000e+00 0.0000000e+00 0.0000000e+00 
5.1691735e-03 1.0800159e-04 0.0000000e+00 
1.2409666e-02 -1.3576131e-04 0.0000000e+00 
1.0733452e-02 2.7772817e-04 0.0000000e+00 
1.1521619e-02 -1.6546669e-04 0.0000000e+00 
8.5395142e-03 2.0883883e-04 0.0000000e+00 
0.0000000e+00 0.0000000e+00 0.0000000e+00 
9.6405872e-03 -1.2115615e-04 0.0000000e+00 
4.9835369e-03 8.0253572e-05 0.0000000e+00 
1.2587885e-02 1.0019499e-04 0.0000000e+00 
1.1966338e-02 1.9984405e-04 0.0000000e+00 
0.0000000e+00 0.0000000e+00 0.0000000e+00 
1.2773044e-02 -2.3804935e-05 0.0000000e+00 
1.0682168e-02 2.2596116e-04 0.0000000e+00 
6.6375675e-03 -5.1568168e-05 0.0000000e+00 
1.2498387e-02 -1.1465512e-04 0.0000000e+00 
0.0000000e+00 0.0000000e+00 0.0000000e+00 
8.3921664e-03 1.6514194e-04 0.0000000e+00 
1.1523207e-02 -1.3670819e-04 0.0000000e+00 
4.8421810e-03 6.1537841e-05 0.0000000e+00 
9.5830062e-03 -9.8160272e-05 0.0000000e+00 
1.2017131e-02 1.6248242e-04 0.0000000e+00 
0.0000000e+00 0.0000000e+00 0.0000000e+00 
1.2705012e-02 7.9500009e-05 0.0000000e+00 
1.0635244e-02 1.8262866e-04 0.0000000e+00 
1.2895571e-02 -2.3930364e-05 0.0000000e+00 
8.2718874e-03 1.3150607e-04 0.0000000e+00 
0.0000000e+00 0.0000000e+00 0.0000000e+00 
6.5775198e-03 -4.1249775e-05 0.0000000e+00 
1.2569034e-02 -9.7421043e-05 0.0000000e+00 
4.7321783e-03 4.8275966e-05 0.0000000e+00 
1.1521378e-02 -1.1222269e-04 0.0000000e+00 
0.0000000e+00 0.0000000e+00 0.0000000e+00 
1.2056641e-02 1.2736945e-04 0.0000000e+00 
1.0594546e-02 1.4443583e-04 0.0000000e+00 
9.5353082e-03 -7.8539531e-05 0.0000000e+00 
1.2800347e-02 5.8631807e-05 0.0000000e+00 
8.1746936e-03 1.0379607e-04 0.0000000e+00 
1.2994459e-02 -2.5640148e-05 0.0000000e+00 
4.6456920e-03 3.8093436e-05 0.0000000e+00 
0.0000000e+00 0.0000000e+00 0.0000000e+00 
1.2623316e-02 -8.2841533e-05 0.0000000e+00 
6.5300827e-03 -3.2433455e-05 0.0000000e+00 
0.0000000e+00 0.0000000e+00 0.0000000e+00 
1.1516721e-02 -9.1095217e-05 0.0000000e+00 
1.0561239e-02 1.1018127e-04 0.0000000e+00 
1.2087613e-02 9.4821028e-05 0.0000000e+00 
8.0979174e-03 7.9902647e-05 0.0000000e+00 
1.2876382e-02 3.8826466e-05 0.0000000e+00 
9.4961896e-03 -6.1815587e-05 0.0000000e+00 
4.5781247e-03 2.9661066e-05 0.0000000e+00 
1.3071872e-02 -2.7658800e-05 0.0000000e+00 
0.0000000e+00 0.0000000e+00 0.0000000e+00 
0.0000000e+00 0.0000000e+00 0.0000000e+00 
1.2663146e-02 -7.0070904e-05 0.0000000e+00 
6.4931921e-03 -2.5004383e-05 0.0000000e+00 
1.1509967e-02 -7.2877354e-05 0.0000000e+00 
1.0535779e-02 8.0046995e-05 0.0000000e+00 
8.0393880e-03 5.9163734e-05 0.0000000e+00 
1.2112096e-02 6.5994110e-05 0.0000000e+00 
4.5265335e-03 2.2408726e-05 0.0000000e+00 
1.2935581e-02 2.1535351e-05 0.0000000e+00 
0.0000000e+00 0.0000000e+00 0.0000000e+00 
9.4645478e-03 -4.7773238e-05 0.0000000e+00 
1.3130403e-02 -2.8936473e-05 0.0000000e+00 
1.2690795e-02 -5.8612221e-05 0.0000000e+00 
0.0000000e+00 0.0000000e+00 0.0000000e+00 
6.4649955e-03 -1.8900964e-05 0.0000000e+00 
7.9968307e-03 4.1635817e-05 0.0000000e+00 
1.0517878e-02 5.4696019e-05 0.0000000e+00 
1.1501970e-02 -5.7353110e-05 0.0000000e+00 
4.4885738e-03 1.6202627e-05 0.0000000e+00 
1.2131617e-02 4.2042654e-05 0.0000000e+00 
0.0000000e+00 0.0000000e+00 0.0000000e+00 
1.2980503e-02 7.8364388e-06 0.0000000e+00 
9.4393766e-03 -3.6271403e-05 0.0000000e+00 
1.3173045e-02 -2.8879499e-05 0.0000000e+00 
1.2708766e-02 -4.8269114e-05 0.0000000e+00 
0.0000000e+00 0.0000000e+00 0.0000000e+00 
6.4437834e-03 -1.4056883e-05 0.0000000e+00 
7.9676592e-03 2.7510305e-05 0.0000000e+00 
4.4619823e-03 1.1077089e-05 0.0000000e+00 
1.0506610e-02 3.4596770e-05 0.0000000e+00 
0.0000000e+00 0.0000000e+00 0.0000000e+00 
1.1493581e-02 -4.4410223e-05 0.0000000e+00 
1.2147281e-02 2.3569560e-05 0.0000000e+00 
1.3013733e-02 -1.8615791e-06 0.0000000e+00 
9.4197139e-03 -2.7179177e-05 0.0000000e+00 
1.3202965e-02 -2.7400450e-05 0.0000000e+00 
1.2719549e-02 -3.9074727e-05 0.0000000e+00 
4.4444602e-03 7.0630392e-06 0.0000000e+00 
0.0000000e+00 0.0000000e+00 0.0000000e+00 
7.9490813e-03 1.6785222e-05 0.0000000e+00 
0.0000000e+00 0.0000000e+00 0.0000000e+00 
6.4279513e-03 -1.0398695e-05 0.0000000e+00 
1.0500642e-02 1.9708470e-05 0.0000000e+00 
1.2159880e-02 1.0455895e-05 0.0000000e+00 
1.1485534e-02 -3.3984363e-05 0.0000000e+00 
1.3037737e-02 -7.8203512e-06 0.0000000e+00 
1.3223215e-02 -2.4819973e-05 0.0000000e+00 
9.4046335e-03 -2.0387912e-05 0.0000000e+00 
4.4337732e-03 4.1117036e-06 0.0000000e+00 
0.0000000e+00 0.0000000e+00 0.0000000e+00 
7.9383542e-03 9.1702554e-06 0.0000000e+00 
1.2725400e-02 -3.1201617e-05 0.0000000e+00 
0.0000000e+00 0.0000000e+00 0.0000000e+00 
1.0498516e-02 9.4732917e-06 0.0000000e+00 
6.4159146e-03 -7.8701421e-06 0.0000000e+00 
1.2169991e-02 1.9775930e-06 0.0000000e+00 
1.1478395e-02 -2.6040144e-05 0.0000000e+00 
1.3054736e-02 -1.0778077e-05 0.0000000e+00 
1.3236511e-02 -2.1684925e-05 0.0000000e+00 
9.3932890e-03 -1.5871223e-05 0.0000000e+00 
0.0000000e+00 0.0000000e+00 0.0000000e+00 
4.4279149e-03 2.0875391e-06 0.0000000e+00 
7.9330405e-03 4.1429603e-06 0.0000000e+00 
1.2728212e-02 -2.4856210e-05 0.0000000e+00 
1.0498885e-02 2.9855231e-06 0.0000000e+00 
0.0000000e+00 0.0000000e+00 0.0000000e+00 
6.4058473e-03 -6.4621595e-06 0.0000000e+00 
1.2178063e-02 -2.9371147e-06 0.0000000e+00 
1.1472604e-02 -2.0555104e-05 0.0000000e+00 
1.3066616e-02 -1.1683370e-05 0.0000000e+00 
1.3245117e-02 -1.8572071e-05 0.0000000e+00 
0.0000000e+00 0.0000000e+00 0.0000000e+00 
9.3850583e-03 -1.3794891e-05 0.0000000e+00 
4.4252362e-03 7.9817584e-07 0.0000000e+00 
7.9311790e-03 1.0681599e-06 0.0000000e+00 
1.0500674e-02 -7.8810903e-07 0.0000000e+00 
1.2729493e-02 -2.0185470e-05 0.0000000e+00 
0.0000000e+00 0.0000000e+00 0.0000000e+00 
1.2184474e-02 -5.4344874e-06 0.0000000e+00 
6.3948471e-03 -6.1607785e-06 0.0000000e+00 
1.1468653e-02 -1.7556639e-05 0.0000000e+00 
1.3074891e-02 -1.1432886e-05 0.0000000e+00 
0.0000000e+00 0.0000000e+00 0.0000000e+00 
4.4245041e-03 3.3957697e-08 0.0000000e+00 
1.3250832e-02 -1.5839635e-05 0.0000000e+00 
9.3797771e-03 -1.4680245e-05 0.0000000e+00 
7.9313456e-03 -6.8634597e-07 0.0000000e+00 
1.0503131e-02 -2.8275493e-06 0.0000000e+00 
1.2730499e-02 -1.6837967e-05 0.0000000e+00 
1.2189548e-02 -6.5408233e-06 0.0000000e+00 
0.0000000e+00 0.0000000e+00 0.0000000e+00 
6.3763511e-03 -4.4260703e-06 0.0000000e+00 
1.1467600e-02 -1.5478378e-05 0.0000000e+00 
1.3080637e-02 -1.0720437e-05 0.0000000e+00 
0.0000000e+00 0.0000000e+00 0.0000000e+00 
4.4248919e-03 -4.0133041e-07 0.0000000e+00 
1.3254934e-02 -1.3632066e-05 0.0000000e+00 
7.9326232e-03 -1.6768010e-06 0.0000000e+00 
9.3772633e-03 -1.0331751e-05 0.0000000e+00 
1.0505812e-02 -3.9694250e-06 0.0000000e+00 
1.2731859e-02 -1.4568006e-05 0.0000000e+00 
1.2193525e-02 -7.0997978e-06 0.0000000e+00 
0.0000000e+00 0.0000000e+00 0.0000000e+00 
6.3380859e-03 4.4801220e-05 0.0000000e+00 
1.3084442e-02 -1.0022057e-05 0.0000000e+00 
1.1467823e-02 -1.2637508e-05 0.0000000e+00 
0.0000000e+00 0.0000000e+00 0.0000000e+00 
4.4259267e-03 -6.7215242e-07 0.0000000e+00 
1.3258840e-02 -1.2064027e-05 0.0000000e+00 
7.9345285e-03 -2.3516102e-06 0.0000000e+00 
9.3560520e-03 1.7053071e-05 0.0000000e+00 
1.0508544e-02 -4.8616532e-06 0.0000000e+00 
1.2735439e-02 -1.3034190e-05 0.0000000e+00 
1.2196515e-02 -7.6038729e-06 0.0000000e+00 
0.0000000e+00 0.0000000e+00 0.0000000e+00 
4.7270927e-03 -7.2036877e-06 0.0000000e+00 
0.0000000e+00 0.0000000e+00 0.0000000e+00 
1.3086513e-02 -8.7918597e-06 0.0000000e+00 
1.1466695e-02 -5.8590141e-06 0.0000000e+00 
4.4274217e-03 -9.2911607e-07 0.0000000e+00 
7.9369099e-03 -3.1399172e-06 0.0000000e+00 
1.3267076e-02 -8.8579623e-06 0.0000000e+00 
8.1147853e-03 5.0003080e-06 0.0000000e+00 
1.0511278e-02 -6.2995651e-06 0.0000000e+00 
1.2754263e-02 -2.5527284e-05 0.0000000e+00 
1.2197851e-02 -9.3543651e-06 0.0000000e+00 
0.0000000e+00 0.0000000e+00 0.0000000e+00 
4.7094916e-03 -3.1968054e-07 0.0000000e+00 
0.0000000e+00 0.0000000e+00 0.0000000e+00 
1.0598736e-02 5.0039395e-06 0.0000000e+00 
1.3085886e-02 -1.0605537e-05 0.0000000e+00 
4.4294518e-03 -1.2793243e-06 0.0000000e+00 
7.9400227e-03 -4.3196982e-06 0.0000000e+00 
1.3306840e-02 -5.6083951e-05 0.0000000e+00 
8.0948679e-03 -2.6956465e-06 0.0000000e+00 
1.0514520e-02 -8.4806054e-06 0.0000000e+00 
1.2236450e-02 2.1199539e-05 0.0000000e+00 
1.2197860e-02 -1.0203603e-05 0.0000000e+00 
0.0000000e+00 0.0000000e+00 0.0000000e+00 
0.0000000e+00 0.0000000e+00 0.0000000e+00 
4.7064658e-03 3.8218872e-09 0.0000000e+00 
1.3116699e-02 -3.3491155e-05 0.0000000e+00 
1.0589177e-02 -3.0739594e-06 0.0000000e+00 
4.4322624e-03 -1.8283060e-06 0.0000000e+00 
7.9441856e-03 -6.1146893e-06 0.0000000e+00 
1.3275937e-02 -7.4400493e-06 0.0000000e+00 
1.0517253e-02 -1.0689686e-05 0.0000000e+00 
8.0932990e-03 -3.8195910e-06 0.0000000e+00 
1.2228963e-02 -2.8386197e-05 0.0000000e+00 
1.2208481e-02 -2.4501136e-05 0.0000000e+00 
0.0000000e+00 0.0000000e+00 0.0000000e+00 
0.0000000e+00 0.0000000e+00 0.0000000e+00 
4.7039812e-03 -2.4447957e-06 0.0000000e+00 
4.4362275e-03 -2.5328697e-06 0.0000000e+00 
1.3142628e-02 -5.6958537e-05 0.0000000e+00 
1.0579592e-02 -1.9833904e-05 0.0000000e+00 
7.9491317e-03 -7.3996121e-06 0.0000000e+00 
1.3086540e-02 4.8385289e-06 0.0000000e+00 
1.0527519e-02 -1.7540452e-05 0.0000000e+00 
8.0830526e-03 -1.3556834e-05 0.0000000e+00 
1.2224528e-02 -2.4888095e-05 0.0000000e+00 
1.2236399e-02 -4.3975517e-05 0.0000000e+00 
0.0000000e+00 0.0000000e+00 0.0000000e+00 
0.0000000e+00 0.0000000e+00 0.0000000e+00 
4.6963024e-03 -6.3816073e-06 0.0000000e+00 
4.4410455e-03 -2.4791253e-06 0.0000000e+00 
1.3105774e-02 -1.3436350e-05 0.0000000e+00 
1.0571453e-02 -2.4607198e-05 0.0000000e+00 
7.9571743e-03 -8.4704858e-06 0.0000000e+00 
1.3092279e-02 -4.9752192e-05 0.0000000e+00 
1.0554515e-02 -2.5960308e-05 0.0000000e+00 
8.0710606e-03 -1.8793542e-05 0.0000000e+00 
1.2213943e-02 -4.4097315e-05 0.0000000e+00 
1.2251931e-02 -4.3793602e-05 0.0000000e+00 
0.0000000e+00 0.0000000e+00 0.0000000e+00 
4.4467494e-03 -3.6990191e-06 0.0000000e+00 
1.3242466e-02 -3.6496416e-05 0.0000000e+00 
0.0000000e+00 0.0000000e+00 0.0000000e+00 
4.6844646e-03 -8.7527220e-06 0.0000000e+00 
1.0557715e-02 -3.7687560e-05 0.0000000e+00 
7.9698907e-03 -1.7741254e-05 0.0000000e+00 
1.3081889e-02 -5.5783249e-05 0.0000000e+00 
1.0607345e-02 -7.9884847e-05 0.0000000e+00 
8.0533623e-03 -2.6750284e-05 0.0000000e+00 
1.2712596e-02 -1.2033998e-05 0.0000000e+00 
1.2201825e-02 -5.6222809e-05 0.0000000e+00 
0.0000000e+00 0.0000000e+00 0.0000000e+00 
4.4583194e-03 -6.9866628e-06 0.0000000e+00 
1.3253300e-02 -5.4754032e-05 0.0000000e+00 
0.0000000e+00 0.0000000e+00 0.0000000e+00 
4.6677455e-03 -1.1883050e-05 0.0000000e+00 
1.0539678e-02 -4.9881010e-05 0.0000000e+00 
8.0170513e-03 -4.6852354e-05 0.0000000e+00 
1.3083122e-02 -6.9865415e-05 0.0000000e+00 
1.0577913e-02 -1.3727465e-05 0.0000000e+00 
8.0296881e-03 -3.5063512e-05 0.0000000e+00 
1.2731259e-02 -7.4009492e-05 0.0000000e+00 
0.0000000e+00 0.0000000e+00 0.0000000e+00 
1.2189793e-02 -7.2972803e-05 0.0000000e+00 
4.4916377e-03 -1.5980551e-05 0.0000000e+00 
1.3256884e-02 -8.5212298e-05 0.0000000e+00 
0.0000000e+00 0.0000000e+00 0.0000000e+00 
4.6456830e-03 -1.5313962e-05 0.0000000e+00 
1.0516833e-02 -6.4665978e-05 0.0000000e+00 
8.0476620e-03 -2.7622724e-05 0.0000000e+00 
1.1434152e-02 -4.4397852e-05 0.0000000e+00 
1.3076671e-02 -9.5686871e-05 0.0000000e+00 
7.9990121e-03 -4.5032289e-05 0.0000000e+00 
1.2736845e-02 -8.5826605e-05 0.0000000e+00 
0.0000000e+00 0.0000000e+00 0.0000000e+00 
1.2171673e-02 -9.6537964e-05 0.0000000e+00 
4.5473612e-03 -1.6225017e-05 0.0000000e+00 
1.3261746e-02 -1.0987029e-04 0.0000000e+00 
9.3077722e-03 -1.6783845e-05 0.0000000e+00 
0.0000000e+00 0.0000000e+00 0.0000000e+00 
4.6173428e-03 -1.9521729e-05 0.0000000e+00 
1.0485975e-02 -8.4061737e-05 0.0000000e+00 
1.1462420e-02 -7.1191080e-05 0.0000000e+00 
1.3067963e-02 -1.2530320e-04 0.0000000e+00 
7.9590194e-03 -5.7916784e-05 0.0000000e+00 
0.0000000e+00 0.0000000e+00 0.0000000e+00 
1.2759846e-02 -1.1381347e-04 0.0000000e+00 
6.2501302e-03 3.7905796e-05 0.0000000e+00 
1.2146995e-02 -1.2578393e-04 0.0000000e+00 
1.3268736e-02 -1.4634203e-04 0.0000000e+00 
9.3558199e-03 -3.8922640e-05 0.0000000e+00 
0.0000000e+00 0.0000000e+00 0.0000000e+00 
4.5809993e-03 -2.4935439e-05 0.0000000e+00 
1.0445163e-02 -1.0863349e-04 0.0000000e+00 
1.1507908e-02 -1.0155855e-04 0.0000000e+00 
1.3055567e-02 -1.6468340e-04 0.0000000e+00 
0.0000000e+00 0.0000000e+00 0.0000000e+00 
7.9071828e-03 -7.4307286e-05 0.0000000e+00 
1.2785022e-02 -1.5496662e-04 0.0000000e+00 
6.2973707e-03 -1.7354720e-05 0.0000000e+00 
1.2113637e-02 -1.6362440e-04 0.0000000e+00 
1.3274261e-02 -1.9479856e-04 0.0000000e+00 
9.4100456e-03 -7.9873411e-05 0.0000000e+00 
0.0000000e+00 0.0000000e+00 0.0000000e+00 
4.5344550e-03 -3.1734267e-05 0.0000000e+00 
1.0391518e-02 -1.4009788e-04 0.0000000e+00 
1.1553876e-02 -1.4812129e-04 0.0000000e+00 
1.3036861e-02 -2.1580774e-04 0.0000000e+00 
0.0000000e+00 0.0000000e+00 0.0000000e+00 
7.8401525e-03 -9.5013406e-05 0.0000000e+00 
1.2812316e-02 -2.1088870e-04 0.0000000e+00 
6.3481397e-03 -4.5567931e-05 0.0000000e+00 
1.2068618e-02 -2.1207280e-04 0.0000000e+00 
9.4714309e-03 -1.2086493e-04 0.0000000e+00 
1.3276937e-02 -2.5821433e-04 0.0000000e+00 
0.0000000e+00 0.0000000e+00 0.0000000e+00 
4.4750671e-03 -4.0105412e-05 0.0000000e+00 
1.0321260e-02 -1.7980931e-04 0.0000000e+00 
1.1607450e-02 -2.0514267e-04 0.0000000e+00 
1.3009336e-02 -2.8152328e-04 0.0000000e+00 
0.0000000e+00 0.0000000e+00 0.0000000e+00 
1.2842939e-02 -2.8261533e-04 0.0000000e+00 
7.7538478e-03 -1.2057359e-04 0.0000000e+00 
6.4225151e-03 -6.8013071e-05 0.0000000e+00 
1.2008220e-02 -2.7328839e-04 0.0000000e+00 
9.5541628e-03 -1.6771228e-04 0.0000000e+00 
1.3275666e-02 -3.3954347e-04 0.0000000e+00 
0.0000000e+00 0.0000000e+00 0.0000000e+00 
4.3999007e-03 -5.0100349e-05 0.0000000e+00 
1.0229679e-02 -2.2887357e-04 0.0000000e+00 
1.1675135e-02 -2.7728317e-04 0.0000000e+00 
1.2969800e-02 -3.6470525e-04 0.0000000e+00 
0.0000000e+00 0.0000000e+00 0.0000000e+00 
1.2878387e-02 -3.7501881e-04 0.0000000e+00 
7.6435958e-03 -1.5120768e-04 0.0000000e+00 
6.5263210e-03 -9.3610487e-05 0.0000000e+00 
1.1927616e-02 -3.4907526e-04 0.0000000e+00 
9.6652776e-03 -2.2819295e-04 0.0000000e+00 
1.3268431e-02 -4.4323477e-04 0.0000000e+00 
0.0000000e+00 0.0000000e+00 0.0000000e+00 
4.3059515e-03 -6.1600977e-05 0.0000000e+00 
1.0111121e-02 -2.8781022e-04 0.0000000e+00 
1.1760939e-02 -3.7226618e-04 0.0000000e+00 
1.2913611e-02 -4.6833380e-04 0.0000000e+00 
0.0000000e+00 0.0000000e+00 0.0000000e+00 
1.2918008e-02 -4.9516733e-04 0.0000000e+00 
6.6680956e-03 -1.2921349e-04 0.0000000e+00 
7.5044009e-03 -1.8661676e-04 0.0000000e+00 
1.1820586e-02 -4.4055509e-04 0.0000000e+00 
9.8121247e-03 -3.1228108e-04 0.0000000e+00 
1.3250785e-02 -5.7427842e-04 0.0000000e+00 
0.0000000e+00 0.0000000e+00 0.0000000e+00 
4.1904721e-03 -7.4250057e-05 0.0000000e+00 
9.9591475e-03 -3.5618389e-04 0.0000000e+00 
1.1866652e-02 -5.0100203e-04 0.0000000e+00 
1.2833929e-02 -5.9467572e-04 0.0000000e+00 