<VTKFile byte_order="LittleEndian" type="UnstructuredGrid" version="0.1">
   <UnstructuredGrid>
      <Piece NumberOfCells="2" NumberOfPoints="4">
         <Points>
            <DataArray Name="Position" NumberOfComponents="3" format="ascii" type="Float64">
              5.000000000e-01  0.000000000e+00  0.000000000e+00  7.500000000e-01  0.000000000e+00  0.000000000e+00  -5.000000000e-01  6.123233996e-17  0.000000000e+00  -7.500000000e-01  9.184850994e-17  0.000000000e+00
            </DataArray>
         </Points>
         <Cells>
            <DataArray Name="connectivity" NumberOfComponents="1" format="ascii" type="Int32">
              0  3  2  2  1  0
            </DataArray>
            <DataArray Name="offsets" NumberOfComponents="1" format="ascii" type="Int32">
              3  6
            </DataArray>
            <DataArray Name="types" NumberOfComponents="1" format="ascii" type="UInt8">
              5  5
            </DataArray>
         </Cells>
         <PointData>
            <DataArray Name="ACTIVATION_LEVEL" NumberOfComponents="1" format="ascii" type="Int32">
              3  4  6  7
            </DataArray>
            <DataArray Name="CONSTITUTIVE_MATRIX" NumberOfComponents="6" format="ascii" type="Float64">
              3.000000000e+00  4.000000000e+00  5.000000000e+00  6.000000000e+00  6.000000000e+00  8.000000000e+00  4.000000000e+00  5.000000000e+00  6.000000000e+00  7.000000000e+00  7.000000000e+00  9.000000000e+00  6.000000000e+00  7.000000000e+00  8.000000000e+00  9.000000000e+00  9.000000000e+00  1.100000000e+01  7.000000000e+00  8.000000000e+00  9.000000000e+00  1.000000000e+01  1.000000000e+01  1.200000000e+01
            </DataArray>
            <DataArray Name="DETERMINANTS_OF_JACOBIAN_PARENT" NumberOfComponents="7" format="ascii" type="Float64">
              3.000000000e+00  4.000000000e+00  5.000000000e+00  6.000000000e+00  7.000000000e+00  8.000000000e+00  9.000000000e+00  4.000000000e+00  5.000000000e+00  6.000000000e+00  7.000000000e+00  8.000000000e+00  9.000000000e+00  1.000000000e+01  6.000000000e+00  7.000000000e+00  8.000000000e+00  9.000000000e+00  1.000000000e+01  1.100000000e+01  1.200000000e+01  7.000000000e+00  8.000000000e+00  9.000000000e+00  1.000000000e+01  1.100000000e+01  1.200000000e+01  1.300000000e+01
            </DataArray>
            <DataArray Name="DISPLACEMENT" NumberOfComponents="3" format="ascii" type="Float64">
              3.000000000e+00  4.000000000e+00  5.000000000e+00  4.000000000e+00  5.000000000e+00  6.000000000e+00  6.000000000e+00  7.000000000e+00  8.000000000e+00  7.000000000e+00  8.000000000e+00  9.000000000e+00
            </DataArray>
            <DataArray Name="PRESSURE" NumberOfComponents="1" format="ascii" type="Float64">
              3.000000000e+00  4.000000000e+00  6.000000000e+00  7.000000000e+00
            </DataArray>
         </PointData>
         <CellData>
            <DataArray Name="ACTIVATION_LEVEL" NumberOfComponents="1" format="ascii" type="Int32">
              4  7
            </DataArray>
            <DataArray Name="CONSTITUTIVE_MATRIX" NumberOfComponents="6" format="ascii" type="Float64">
              4.000000000e+00  5.000000000e+00  6.000000000e+00  7.000000000e+00  7.000000000e+00  9.000000000e+00  7.000000000e+00  8.000000000e+00  9.000000000e+00  1.000000000e+01  1.000000000e+01  1.200000000e+01
            </DataArray>
            <DataArray Name="DETERMINANTS_OF_JACOBIAN_PARENT" NumberOfComponents="7" format="ascii" type="Float64">
              4.000000000e+00  5.000000000e+00  6.000000000e+00  7.000000000e+00  8.000000000e+00  9.000000000e+00  1.000000000e+01  7.000000000e+00  8.000000000e+00  9.000000000e+00  1.000000000e+01  1.100000000e+01  1.200000000e+01  1.300000000e+01
            </DataArray>
            <DataArray Name="DISPLACEMENT" NumberOfComponents="3" format="ascii" type="Float64">
              4.000000000e+00  5.000000000e+00  6.000000000e+00  7.000000000e+00  8.000000000e+00  9.000000000e+00
            </DataArray>
            <DataArray Name="PRESSURE" NumberOfComponents="1" format="ascii" type="Float64">
              4.000000000e+00  7.000000000e+00
            </DataArray>
         </CellData>
      </Piece>
   </UnstructuredGrid>
</VTKFile>
