<VTKFile byte_order="LittleEndian" type="UnstructuredGrid" version="0.1">
   <UnstructuredGrid>
      <Piece NumberOfCells="0" NumberOfPoints="2">
         <Points>
            <DataArray Name="Position" NumberOfComponents="3" format="ascii" type="Float64">
              -2.500000000e-01  5.102694996e-17  0.000000000e+00  2.500000000e-01  2.041077999e-17  0.000000000e+00
            </DataArray>
         </Points>
         <Cells/>
         <PointData>
            <DataArray Name="PRESSURE" NumberOfComponents="1" format="ascii" type="Float64">
              4.687813971e-310  0.000000000e+00
            </DataArray>
         </PointData>
      </Piece>
   </UnstructuredGrid>
</VTKFile>
