<VTKFile byte_order="LittleEndian" type="UnstructuredGrid" version="0.1">
   <UnstructuredGrid>
      <Piece NumberOfCells="0" NumberOfPoints="13">
         <Points>
            <DataArray Name="Position" NumberOfComponents="3" format="ascii" type="Float64">
              1.666666667e-01  3.061616998e-17  0.000000000e+00  -2.500000000e-01  5.102694996e-17  0.000000000e+00  4.635148189e-01  2.077713700e-17  0.000000000e+00  5.468481522e-01  2.451256900e-17  0.000000000e+00  -5.468481522e-01  9.148215292e-17  0.000000000e+00  -4.635148189e-01  7.754133093e-17  0.000000000e+00  -1.666666667e-01  5.102694996e-17  0.000000000e+00  2.500000000e-01  2.041077999e-17  0.000000000e+00  -4.635148189e-01  7.754133093e-17  0.000000000e+00  -5.468481522e-01  9.148215292e-17  0.000000000e+00  5.468481522e-01  2.451256900e-17  0.000000000e+00  4.635148189e-01  2.077713700e-17  0.000000000e+00  -8.750000000e-01  1.071565949e-16  0.000000000e+00
            </DataArray>
         </Points>
         <Cells/>
         <PointData>
            <DataArray Name="PRESSURE" NumberOfComponents="1" format="ascii" type="Float64">
              1.144661498e-313  0.000000000e+00  4.688533597e-310  0.000000000e+00  4.688533498e-310  1.976262583e-323  8.408354710e-315  9.823958314e+252  4.688533498e-310  2.470328229e-323  8.964771424e+223  1.729450895e-306  5.533535233e-322
            </DataArray>
         </PointData>
      </Piece>
   </UnstructuredGrid>
</VTKFile>
