<VTKFile byte_order="LittleEndian" type="UnstructuredGrid" version="0.1">
   <UnstructuredGrid>
      <Piece NumberOfCells="0" NumberOfPoints="0">
         <Points>
            <DataArray Name="Position" NumberOfComponents="3" format="ascii" type="Float64"/>
         </Points>
         <Cells/>
         <PointData>
            <DataArray Name="DISPLACEMENT" NumberOfComponents="3" format="ascii" type="Float64"/>
            <DataArray Name="PRESSURE" NumberOfComponents="1" format="ascii" type="Float64"/>
         </PointData>
      </Piece>
   </UnstructuredGrid>
</VTKFile>
