<VTKFile byte_order="LittleEndian" type="UnstructuredGrid" version="0.1">
   <UnstructuredGrid>
      <Piece NumberOfCells="0" NumberOfPoints="0">
         <Points>
            <DataArray Name="Position" NumberOfComponents="3" format="ascii" type="Float64"/>
         </Points>
         <Cells>
            <DataArray Name="connectivity" NumberOfComponents="1" format="ascii" type="Int32"/>
            <DataArray Name="offsets" NumberOfComponents="1" format="ascii" type="Int32"/>
            <DataArray Name="types" NumberOfComponents="1" format="ascii" type="UInt8"/>
         </Cells>
         <PointData/>
         <CellData>
            <DataArray Name="ACTIVATION_LEVEL" NumberOfComponents="1" format="ascii" type="Int32"/>
            <DataArray Name="CONSTITUTIVE_MATRIX" NumberOfComponents="6" format="ascii" type="Float64"/>
            <DataArray Name="DETERMINANTS_OF_JACOBIAN_PARENT" NumberOfComponents="7" format="ascii" type="Float64"/>
            <DataArray Name="DISPLACEMENT" NumberOfComponents="3" format="ascii" type="Float64"/>
            <DataArray Name="PRESSURE" NumberOfComponents="1" format="ascii" type="Float64"/>
         </CellData>
      </Piece>
   </UnstructuredGrid>
</VTKFile>
