<VTKFile byte_order="LittleEndian" type="UnstructuredGrid" version="0.1">
   <UnstructuredGrid>
      <Piece NumberOfCells="0" NumberOfPoints="0">
         <Points>
            <DataArray Name="Position" NumberOfComponents="3" format="ascii" type="Float64"/>
         </Points>
         <Cells>
            <DataArray Name="connectivity" NumberOfComponents="1" format="ascii" type="Int32"/>
            <DataArray Name="offsets" NumberOfComponents="1" format="ascii" type="Int32"/>
            <DataArray Name="types" NumberOfComponents="1" format="ascii" type="UInt8"/>
         </Cells>
         <PointData>
            <DataArray Name="ACTIVATION_LEVEL" NumberOfComponents="1" format="ascii" type="Int32"/>
            <DataArray Name="CONSTITUTIVE_MATRIX" NumberOfComponents="6" format="ascii" type="Float64"/>
            <DataArray Name="DETERMINANTS_OF_JACOBIAN_PARENT" NumberOfComponents="7" format="ascii" type="Float64"/>
            <DataArray Name="DISPLACEMENT" NumberOfComponents="3" format="ascii" type="Float64"/>
            <DataArray Name="PRESSURE" NumberOfComponents="1" format="ascii" type="Float64"/>
            <DataArray Name="exp_hist_ACTIVATION_LEVEL" NumberOfComponents="1" format="ascii" type="Float64"/>
            <DataArray Name="exp_hist_CONSTITUTIVE_MATRIX" NumberOfComponents="6" format="ascii" type="Float64"/>
            <DataArray Name="exp_hist_DETERMINANTS_OF_JACOBIAN_PARENT" NumberOfComponents="7" format="ascii" type="Float64"/>
            <DataArray Name="exp_hist_DISPLACEMENT" NumberOfComponents="3" format="ascii" type="Float64"/>
            <DataArray Name="exp_hist_PRESSURE" NumberOfComponents="1" format="ascii" type="Float64"/>
            <DataArray Name="exp_non_hist_ACTIVATION_LEVEL" NumberOfComponents="1" format="ascii" type="Float64"/>
            <DataArray Name="exp_non_hist_CONSTITUTIVE_MATRIX" NumberOfComponents="6" format="ascii" type="Float64"/>
            <DataArray Name="exp_non_hist_DETERMINANTS_OF_JACOBIAN_PARENT" NumberOfComponents="7" format="ascii" type="Float64"/>
            <DataArray Name="exp_non_hist_DISPLACEMENT" NumberOfComponents="3" format="ascii" type="Float64"/>
            <DataArray Name="exp_non_hist_PRESSURE" NumberOfComponents="1" format="ascii" type="Float64"/>
            <DataArray Name="ta_hist_CONSTITUTIVE_MATRIX" NumberOfComponents="6" format="ascii" type="Float64"/>
            <DataArray Name="ta_hist_DETERMINANTS_OF_JACOBIAN_PARENT" NumberOfComponents="7" format="ascii" type="Float64"/>
            <DataArray Name="ta_hist_DISPLACEMENT" NumberOfComponents="3" format="ascii" type="Float64"/>
            <DataArray Name="ta_hist_PRESSURE" NumberOfComponents="1" format="ascii" type="Float64"/>
            <DataArray Name="ta_hist_local_CONSTITUTIVE_MATRIX" NumberOfComponents="6" format="ascii" type="Float64"/>
            <DataArray Name="ta_hist_local_DETERMINANTS_OF_JACOBIAN_PARENT" NumberOfComponents="7" format="ascii" type="Float64"/>
            <DataArray Name="ta_hist_local_DISPLACEMENT" NumberOfComponents="3" format="ascii" type="Float64"/>
            <DataArray Name="ta_hist_local_PRESSURE" NumberOfComponents="1" format="ascii" type="Float64"/>
            <DataArray Name="ta_non_hist_CONSTITUTIVE_MATRIX" NumberOfComponents="6" format="ascii" type="Float64"/>
            <DataArray Name="ta_non_hist_DETERMINANTS_OF_JACOBIAN_PARENT" NumberOfComponents="7" format="ascii" type="Float64"/>
            <DataArray Name="ta_non_hist_DISPLACEMENT" NumberOfComponents="3" format="ascii" type="Float64"/>
            <DataArray Name="ta_non_hist_PRESSURE" NumberOfComponents="1" format="ascii" type="Float64"/>
            <DataArray Name="ta_non_hist_local_CONSTITUTIVE_MATRIX" NumberOfComponents="6" format="ascii" type="Float64"/>
            <DataArray Name="ta_non_hist_local_DETERMINANTS_OF_JACOBIAN_PARENT" NumberOfComponents="7" format="ascii" type="Float64"/>
            <DataArray Name="ta_non_hist_local_DISPLACEMENT" NumberOfComponents="3" format="ascii" type="Float64"/>
            <DataArray Name="ta_non_hist_local_PRESSURE" NumberOfComponents="1" format="ascii" type="Float64"/>
         </PointData>
         <CellData>
            <DataArray Name="ACTIVATION_LEVEL" NumberOfComponents="1" format="ascii" type="Int32"/>
            <DataArray Name="CONSTITUTIVE_MATRIX" NumberOfComponents="6" format="ascii" type="Float64"/>
            <DataArray Name="DETERMINANTS_OF_JACOBIAN_PARENT" NumberOfComponents="7" format="ascii" type="Float64"/>
            <DataArray Name="DISPLACEMENT" NumberOfComponents="3" format="ascii" type="Float64"/>
            <DataArray Name="PRESSURE" NumberOfComponents="1" format="ascii" type="Float64"/>
            <DataArray Name="exp_var_ACTIVATION_LEVEL" NumberOfComponents="1" format="ascii" type="Float64"/>
            <DataArray Name="exp_var_CONSTITUTIVE_MATRIX" NumberOfComponents="6" format="ascii" type="Float64"/>
            <DataArray Name="exp_var_DETERMINANTS_OF_JACOBIAN_PARENT" NumberOfComponents="7" format="ascii" type="Float64"/>
            <DataArray Name="exp_var_DISPLACEMENT" NumberOfComponents="3" format="ascii" type="Float64"/>
            <DataArray Name="exp_var_PRESSURE" NumberOfComponents="1" format="ascii" type="Float64"/>
            <DataArray Name="ta_non_hist_CONSTITUTIVE_MATRIX" NumberOfComponents="6" format="ascii" type="Float64"/>
            <DataArray Name="ta_non_hist_DETERMINANTS_OF_JACOBIAN_PARENT" NumberOfComponents="7" format="ascii" type="Float64"/>
            <DataArray Name="ta_non_hist_DISPLACEMENT" NumberOfComponents="3" format="ascii" type="Float64"/>
            <DataArray Name="ta_non_hist_PRESSURE" NumberOfComponents="1" format="ascii" type="Float64"/>
            <DataArray Name="ta_non_hist_local_CONSTITUTIVE_MATRIX" NumberOfComponents="6" format="ascii" type="Float64"/>
            <DataArray Name="ta_non_hist_local_DETERMINANTS_OF_JACOBIAN_PARENT" NumberOfComponents="7" format="ascii" type="Float64"/>
            <DataArray Name="ta_non_hist_local_DISPLACEMENT" NumberOfComponents="3" format="ascii" type="Float64"/>
            <DataArray Name="ta_non_hist_local_PRESSURE" NumberOfComponents="1" format="ascii" type="Float64"/>
         </CellData>
      </Piece>
   </UnstructuredGrid>
</VTKFile>
