<VTKFile byte_order="LittleEndian" type="UnstructuredGrid" version="0.1">
   <UnstructuredGrid>
      <Piece NumberOfCells="6" NumberOfPoints="6">
         <Points>
            <DataArray Name="Position" NumberOfComponents="3" format="ascii" type="Float64">
              5.000000000e-01  0.000000000e+00  0.000000000e+00  7.500000000e-01  0.000000000e+00  0.000000000e+00  1.000000000e+00  0.000000000e+00  0.000000000e+00  -5.000000000e-01  6.123233996e-17  0.000000000e+00  -7.500000000e-01  9.184850994e-17  0.000000000e+00  -1.000000000e+00  1.224646799e-16  0.000000000e+00
            </DataArray>
         </Points>
         <Cells>
            <DataArray Name="connectivity" NumberOfComponents="1" format="ascii" type="Int32">
              0  1  4  0  4  3  1  2  5  4  3  4  1  3  1  0  4  5  2  1
            </DataArray>
            <DataArray Name="offsets" NumberOfComponents="1" format="ascii" type="Int32">
              3  6  10  13  16  20
            </DataArray>
            <DataArray Name="types" NumberOfComponents="1" format="ascii" type="UInt8">
              5  5  9  5  5  9
            </DataArray>
         </Cells>
         <PointData>
            <DataArray Name="ACTIVATION_LEVEL" NumberOfComponents="1" format="ascii" type="Int32">
              3  4  5  6  7  8
            </DataArray>
            <DataArray Name="CONSTITUTIVE_MATRIX" NumberOfComponents="6" format="ascii" type="Float64">
              3.000000000e+00  4.000000000e+00  5.000000000e+00  6.000000000e+00  6.000000000e+00  8.000000000e+00  4.000000000e+00  5.000000000e+00  6.000000000e+00  7.000000000e+00  7.000000000e+00  9.000000000e+00  5.000000000e+00  6.000000000e+00  7.000000000e+00  8.000000000e+00  8.000000000e+00  1.000000000e+01  6.000000000e+00  7.000000000e+00  8.000000000e+00  9.000000000e+00  9.000000000e+00  1.100000000e+01  7.000000000e+00  8.000000000e+00  9.000000000e+00  1.000000000e+01  1.000000000e+01  1.200000000e+01  8.000000000e+00  9.000000000e+00  1.000000000e+01  1.100000000e+01  1.100000000e+01  1.300000000e+01
            </DataArray>
            <DataArray Name="DETERMINANTS_OF_JACOBIAN_PARENT" NumberOfComponents="7" format="ascii" type="Float64">
              3.000000000e+00  4.000000000e+00  5.000000000e+00  6.000000000e+00  7.000000000e+00  8.000000000e+00  9.000000000e+00  4.000000000e+00  5.000000000e+00  6.000000000e+00  7.000000000e+00  8.000000000e+00  9.000000000e+00  1.000000000e+01  5.000000000e+00  6.000000000e+00  7.000000000e+00  8.000000000e+00  9.000000000e+00  1.000000000e+01  1.100000000e+01  6.000000000e+00  7.000000000e+00  8.000000000e+00  9.000000000e+00  1.000000000e+01  1.100000000e+01  1.200000000e+01  7.000000000e+00  8.000000000e+00  9.000000000e+00  1.000000000e+01  1.100000000e+01  1.200000000e+01  1.300000000e+01  8.000000000e+00  9.000000000e+00  1.000000000e+01  1.100000000e+01  1.200000000e+01  1.300000000e+01  1.400000000e+01
            </DataArray>
            <DataArray Name="DISPLACEMENT" NumberOfComponents="3" format="ascii" type="Float64">
              3.000000000e+00  4.000000000e+00  5.000000000e+00  4.000000000e+00  5.000000000e+00  6.000000000e+00  5.000000000e+00  6.000000000e+00  7.000000000e+00  6.000000000e+00  7.000000000e+00  8.000000000e+00  7.000000000e+00  8.000000000e+00  9.000000000e+00  8.000000000e+00  9.000000000e+00  1.000000000e+01
            </DataArray>
            <DataArray Name="PRESSURE" NumberOfComponents="1" format="ascii" type="Float64">
              3.000000000e+00  4.000000000e+00  5.000000000e+00  6.000000000e+00  7.000000000e+00  8.000000000e+00
            </DataArray>
            <DataArray Name="exp_hist_ACTIVATION_LEVEL" NumberOfComponents="1" format="ascii" type="Float64">
              3.000000000e+00  4.000000000e+00  5.000000000e+00  6.000000000e+00  7.000000000e+00  8.000000000e+00
            </DataArray>
            <DataArray Name="exp_hist_CONSTITUTIVE_MATRIX" NumberOfComponents="6" format="ascii" type="Float64">
              3.000000000e+00  4.000000000e+00  5.000000000e+00  6.000000000e+00  6.000000000e+00  8.000000000e+00  4.000000000e+00  5.000000000e+00  6.000000000e+00  7.000000000e+00  7.000000000e+00  9.000000000e+00  5.000000000e+00  6.000000000e+00  7.000000000e+00  8.000000000e+00  8.000000000e+00  1.000000000e+01  6.000000000e+00  7.000000000e+00  8.000000000e+00  9.000000000e+00  9.000000000e+00  1.100000000e+01  7.000000000e+00  8.000000000e+00  9.000000000e+00  1.000000000e+01  1.000000000e+01  1.200000000e+01  8.000000000e+00  9.000000000e+00  1.000000000e+01  1.100000000e+01  1.100000000e+01  1.300000000e+01
            </DataArray>
            <DataArray Name="exp_hist_DETERMINANTS_OF_JACOBIAN_PARENT" NumberOfComponents="7" format="ascii" type="Float64">
              3.000000000e+00  4.000000000e+00  5.000000000e+00  6.000000000e+00  7.000000000e+00  8.000000000e+00  9.000000000e+00  4.000000000e+00  5.000000000e+00  6.000000000e+00  7.000000000e+00  8.000000000e+00  9.000000000e+00  1.000000000e+01  5.000000000e+00  6.000000000e+00  7.000000000e+00  8.000000000e+00  9.000000000e+00  1.000000000e+01  1.100000000e+01  6.000000000e+00  7.000000000e+00  8.000000000e+00  9.000000000e+00  1.000000000e+01  1.100000000e+01  1.200000000e+01  7.000000000e+00  8.000000000e+00  9.000000000e+00  1.000000000e+01  1.100000000e+01  1.200000000e+01  1.300000000e+01  8.000000000e+00  9.000000000e+00  1.000000000e+01  1.100000000e+01  1.200000000e+01  1.300000000e+01  1.400000000e+01
            </DataArray>
            <DataArray Name="exp_hist_DISPLACEMENT" NumberOfComponents="3" format="ascii" type="Float64">
              3.000000000e+00  4.000000000e+00  5.000000000e+00  4.000000000e+00  5.000000000e+00  6.000000000e+00  5.000000000e+00  6.000000000e+00  7.000000000e+00  6.000000000e+00  7.000000000e+00  8.000000000e+00  7.000000000e+00  8.000000000e+00  9.000000000e+00  8.000000000e+00  9.000000000e+00  1.000000000e+01
            </DataArray>
            <DataArray Name="exp_hist_PRESSURE" NumberOfComponents="1" format="ascii" type="Float64">
              3.000000000e+00  4.000000000e+00  5.000000000e+00  6.000000000e+00  7.000000000e+00  8.000000000e+00
            </DataArray>
            <DataArray Name="exp_non_hist_ACTIVATION_LEVEL" NumberOfComponents="1" format="ascii" type="Float64">
              3.000000000e+00  4.000000000e+00  5.000000000e+00  6.000000000e+00  7.000000000e+00  8.000000000e+00
            </DataArray>
            <DataArray Name="exp_non_hist_CONSTITUTIVE_MATRIX" NumberOfComponents="6" format="ascii" type="Float64">
              3.000000000e+00  4.000000000e+00  5.000000000e+00  6.000000000e+00  6.000000000e+00  8.000000000e+00  4.000000000e+00  5.000000000e+00  6.000000000e+00  7.000000000e+00  7.000000000e+00  9.000000000e+00  5.000000000e+00  6.000000000e+00  7.000000000e+00  8.000000000e+00  8.000000000e+00  1.000000000e+01  6.000000000e+00  7.000000000e+00  8.000000000e+00  9.000000000e+00  9.000000000e+00  1.100000000e+01  7.000000000e+00  8.000000000e+00  9.000000000e+00  1.000000000e+01  1.000000000e+01  1.200000000e+01  8.000000000e+00  9.000000000e+00  1.000000000e+01  1.100000000e+01  1.100000000e+01  1.300000000e+01
            </DataArray>
            <DataArray Name="exp_non_hist_DETERMINANTS_OF_JACOBIAN_PARENT" NumberOfComponents="7" format="ascii" type="Float64">
              3.000000000e+00  4.000000000e+00  5.000000000e+00  6.000000000e+00  7.000000000e+00  8.000000000e+00  9.000000000e+00  4.000000000e+00  5.000000000e+00  6.000000000e+00  7.000000000e+00  8.000000000e+00  9.000000000e+00  1.000000000e+01  5.000000000e+00  6.000000000e+00  7.000000000e+00  8.000000000e+00  9.000000000e+00  1.000000000e+01  1.100000000e+01  6.000000000e+00  7.000000000e+00  8.000000000e+00  9.000000000e+00  1.000000000e+01  1.100000000e+01  1.200000000e+01  7.000000000e+00  8.000000000e+00  9.000000000e+00  1.000000000e+01  1.100000000e+01  1.200000000e+01  1.300000000e+01  8.000000000e+00  9.000000000e+00  1.000000000e+01  1.100000000e+01  1.200000000e+01  1.300000000e+01  1.400000000e+01
            </DataArray>
            <DataArray Name="exp_non_hist_DISPLACEMENT" NumberOfComponents="3" format="ascii" type="Float64">
              3.000000000e+00  4.000000000e+00  5.000000000e+00  4.000000000e+00  5.000000000e+00  6.000000000e+00  5.000000000e+00  6.000000000e+00  7.000000000e+00  6.000000000e+00  7.000000000e+00  8.000000000e+00  7.000000000e+00  8.000000000e+00  9.000000000e+00  8.000000000e+00  9.000000000e+00  1.000000000e+01
            </DataArray>
            <DataArray Name="exp_non_hist_PRESSURE" NumberOfComponents="1" format="ascii" type="Float64">
              3.000000000e+00  4.000000000e+00  5.000000000e+00  6.000000000e+00  7.000000000e+00  8.000000000e+00
            </DataArray>
            <DataArray Name="ta_hist_CONSTITUTIVE_MATRIX" NumberOfComponents="6" format="ascii" type="Float64">
              3.000000000e+00  4.000000000e+00  5.000000000e+00  6.000000000e+00  6.000000000e+00  8.000000000e+00  4.000000000e+00  5.000000000e+00  6.000000000e+00  7.000000000e+00  7.000000000e+00  9.000000000e+00  5.000000000e+00  6.000000000e+00  7.000000000e+00  8.000000000e+00  8.000000000e+00  1.000000000e+01  6.000000000e+00  7.000000000e+00  8.000000000e+00  9.000000000e+00  9.000000000e+00  1.100000000e+01  7.000000000e+00  8.000000000e+00  9.000000000e+00  1.000000000e+01  1.000000000e+01  1.200000000e+01  8.000000000e+00  9.000000000e+00  1.000000000e+01  1.100000000e+01  1.100000000e+01  1.300000000e+01
            </DataArray>
            <DataArray Name="ta_hist_DETERMINANTS_OF_JACOBIAN_PARENT" NumberOfComponents="7" format="ascii" type="Float64">
              3.000000000e+00  4.000000000e+00  5.000000000e+00  6.000000000e+00  7.000000000e+00  8.000000000e+00  9.000000000e+00  4.000000000e+00  5.000000000e+00  6.000000000e+00  7.000000000e+00  8.000000000e+00  9.000000000e+00  1.000000000e+01  5.000000000e+00  6.000000000e+00  7.000000000e+00  8.000000000e+00  9.000000000e+00  1.000000000e+01  1.100000000e+01  6.000000000e+00  7.000000000e+00  8.000000000e+00  9.000000000e+00  1.000000000e+01  1.100000000e+01  1.200000000e+01  7.000000000e+00  8.000000000e+00  9.000000000e+00  1.000000000e+01  1.100000000e+01  1.200000000e+01  1.300000000e+01  8.000000000e+00  9.000000000e+00  1.000000000e+01  1.100000000e+01  1.200000000e+01  1.300000000e+01  1.400000000e+01
            </DataArray>
            <DataArray Name="ta_hist_DISPLACEMENT" NumberOfComponents="3" format="ascii" type="Float64">
              3.000000000e+00  4.000000000e+00  5.000000000e+00  4.000000000e+00  5.000000000e+00  6.000000000e+00  5.000000000e+00  6.000000000e+00  7.000000000e+00  6.000000000e+00  7.000000000e+00  8.000000000e+00  7.000000000e+00  8.000000000e+00  9.000000000e+00  8.000000000e+00  9.000000000e+00  1.000000000e+01
            </DataArray>
            <DataArray Name="ta_hist_PRESSURE" NumberOfComponents="1" format="ascii" type="Float64">
              3.000000000e+00  4.000000000e+00  5.000000000e+00  6.000000000e+00  7.000000000e+00  8.000000000e+00
            </DataArray>
            <DataArray Name="ta_hist_local_CONSTITUTIVE_MATRIX" NumberOfComponents="6" format="ascii" type="Float64">
              3.000000000e+00  4.000000000e+00  5.000000000e+00  6.000000000e+00  6.000000000e+00  8.000000000e+00  4.000000000e+00  5.000000000e+00  6.000000000e+00  7.000000000e+00  7.000000000e+00  9.000000000e+00  5.000000000e+00  6.000000000e+00  7.000000000e+00  8.000000000e+00  8.000000000e+00  1.000000000e+01  6.000000000e+00  7.000000000e+00  8.000000000e+00  9.000000000e+00  9.000000000e+00  1.100000000e+01  7.000000000e+00  8.000000000e+00  9.000000000e+00  1.000000000e+01  1.000000000e+01  1.200000000e+01  8.000000000e+00  9.000000000e+00  1.000000000e+01  1.100000000e+01  1.100000000e+01  1.300000000e+01
            </DataArray>
            <DataArray Name="ta_hist_local_DETERMINANTS_OF_JACOBIAN_PARENT" NumberOfComponents="7" format="ascii" type="Float64">
              3.000000000e+00  4.000000000e+00  5.000000000e+00  6.000000000e+00  7.000000000e+00  8.000000000e+00  9.000000000e+00  4.000000000e+00  5.000000000e+00  6.000000000e+00  7.000000000e+00  8.000000000e+00  9.000000000e+00  1.000000000e+01  5.000000000e+00  6.000000000e+00  7.000000000e+00  8.000000000e+00  9.000000000e+00  1.000000000e+01  1.100000000e+01  6.000000000e+00  7.000000000e+00  8.000000000e+00  9.000000000e+00  1.000000000e+01  1.100000000e+01  1.200000000e+01  7.000000000e+00  8.000000000e+00  9.000000000e+00  1.000000000e+01  1.100000000e+01  1.200000000e+01  1.300000000e+01  8.000000000e+00  9.000000000e+00  1.000000000e+01  1.100000000e+01  1.200000000e+01  1.300000000e+01  1.400000000e+01
            </DataArray>
            <DataArray Name="ta_hist_local_DISPLACEMENT" NumberOfComponents="3" format="ascii" type="Float64">
              3.000000000e+00  4.000000000e+00  5.000000000e+00  4.000000000e+00  5.000000000e+00  6.000000000e+00  5.000000000e+00  6.000000000e+00  7.000000000e+00  6.000000000e+00  7.000000000e+00  8.000000000e+00  7.000000000e+00  8.000000000e+00  9.000000000e+00  8.000000000e+00  9.000000000e+00  1.000000000e+01
            </DataArray>
            <DataArray Name="ta_hist_local_PRESSURE" NumberOfComponents="1" format="ascii" type="Float64">
              3.000000000e+00  4.000000000e+00  5.000000000e+00  6.000000000e+00  7.000000000e+00  8.000000000e+00
            </DataArray>
            <DataArray Name="ta_non_hist_CONSTITUTIVE_MATRIX" NumberOfComponents="6" format="ascii" type="Float64">
              3.000000000e+00  4.000000000e+00  5.000000000e+00  6.000000000e+00  6.000000000e+00  8.000000000e+00  4.000000000e+00  5.000000000e+00  6.000000000e+00  7.000000000e+00  7.000000000e+00  9.000000000e+00  5.000000000e+00  6.000000000e+00  7.000000000e+00  8.000000000e+00  8.000000000e+00  1.000000000e+01  6.000000000e+00  7.000000000e+00  8.000000000e+00  9.000000000e+00  9.000000000e+00  1.100000000e+01  7.000000000e+00  8.000000000e+00  9.000000000e+00  1.000000000e+01  1.000000000e+01  1.200000000e+01  8.000000000e+00  9.000000000e+00  1.000000000e+01  1.100000000e+01  1.100000000e+01  1.300000000e+01
            </DataArray>
            <DataArray Name="ta_non_hist_DETERMINANTS_OF_JACOBIAN_PARENT" NumberOfComponents="7" format="ascii" type="Float64">
              3.000000000e+00  4.000000000e+00  5.000000000e+00  6.000000000e+00  7.000000000e+00  8.000000000e+00  9.000000000e+00  4.000000000e+00  5.000000000e+00  6.000000000e+00  7.000000000e+00  8.000000000e+00  9.000000000e+00  1.000000000e+01  5.000000000e+00  6.000000000e+00  7.000000000e+00  8.000000000e+00  9.000000000e+00  1.000000000e+01  1.100000000e+01  6.000000000e+00  7.000000000e+00  8.000000000e+00  9.000000000e+00  1.000000000e+01  1.100000000e+01  1.200000000e+01  7.000000000e+00  8.000000000e+00  9.000000000e+00  1.000000000e+01  1.100000000e+01  1.200000000e+01  1.300000000e+01  8.000000000e+00  9.000000000e+00  1.000000000e+01  1.100000000e+01  1.200000000e+01  1.300000000e+01  1.400000000e+01
            </DataArray>
            <DataArray Name="ta_non_hist_DISPLACEMENT" NumberOfComponents="3" format="ascii" type="Float64">
              3.000000000e+00  4.000000000e+00  5.000000000e+00  4.000000000e+00  5.000000000e+00  6.000000000e+00  5.000000000e+00  6.000000000e+00  7.000000000e+00  6.000000000e+00  7.000000000e+00  8.000000000e+00  7.000000000e+00  8.000000000e+00  9.000000000e+00  8.000000000e+00  9.000000000e+00  1.000000000e+01
            </DataArray>
            <DataArray Name="ta_non_hist_PRESSURE" NumberOfComponents="1" format="ascii" type="Float64">
              3.000000000e+00  4.000000000e+00  5.000000000e+00  6.000000000e+00  7.000000000e+00  8.000000000e+00
            </DataArray>
            <DataArray Name="ta_non_hist_local_CONSTITUTIVE_MATRIX" NumberOfComponents="6" format="ascii" type="Float64">
              3.000000000e+00  4.000000000e+00  5.000000000e+00  6.000000000e+00  6.000000000e+00  8.000000000e+00  4.000000000e+00  5.000000000e+00  6.000000000e+00  7.000000000e+00  7.000000000e+00  9.000000000e+00  5.000000000e+00  6.000000000e+00  7.000000000e+00  8.000000000e+00  8.000000000e+00  1.000000000e+01  6.000000000e+00  7.000000000e+00  8.000000000e+00  9.000000000e+00  9.000000000e+00  1.100000000e+01  7.000000000e+00  8.000000000e+00  9.000000000e+00  1.000000000e+01  1.000000000e+01  1.200000000e+01  8.000000000e+00  9.000000000e+00  1.000000000e+01  1.100000000e+01  1.100000000e+01  1.300000000e+01
            </DataArray>
            <DataArray Name="ta_non_hist_local_DETERMINANTS_OF_JACOBIAN_PARENT" NumberOfComponents="7" format="ascii" type="Float64">
              3.000000000e+00  4.000000000e+00  5.000000000e+00  6.000000000e+00  7.000000000e+00  8.000000000e+00  9.000000000e+00  4.000000000e+00  5.000000000e+00  6.000000000e+00  7.000000000e+00  8.000000000e+00  9.000000000e+00  1.000000000e+01  5.000000000e+00  6.000000000e+00  7.000000000e+00  8.000000000e+00  9.000000000e+00  1.000000000e+01  1.100000000e+01  6.000000000e+00  7.000000000e+00  8.000000000e+00  9.000000000e+00  1.000000000e+01  1.100000000e+01  1.200000000e+01  7.000000000e+00  8.000000000e+00  9.000000000e+00  1.000000000e+01  1.100000000e+01  1.200000000e+01  1.300000000e+01  8.000000000e+00  9.000000000e+00  1.000000000e+01  1.100000000e+01  1.200000000e+01  1.300000000e+01  1.400000000e+01
            </DataArray>
            <DataArray Name="ta_non_hist_local_DISPLACEMENT" NumberOfComponents="3" format="ascii" type="Float64">
              3.000000000e+00  4.000000000e+00  5.000000000e+00  4.000000000e+00  5.000000000e+00  6.000000000e+00  5.000000000e+00  6.000000000e+00  7.000000000e+00  6.000000000e+00  7.000000000e+00  8.000000000e+00  7.000000000e+00  8.000000000e+00  9.000000000e+00  8.000000000e+00  9.000000000e+00  1.000000000e+01
            </DataArray>
            <DataArray Name="ta_non_hist_local_PRESSURE" NumberOfComponents="1" format="ascii" type="Float64">
              3.000000000e+00  4.000000000e+00  5.000000000e+00  6.000000000e+00  7.000000000e+00  8.000000000e+00
            </DataArray>
         </PointData>
         <CellData>
            <DataArray Name="ACTIVATION_LEVEL" NumberOfComponents="1" format="ascii" type="Int32">
              3  4  5  6  7  8
            </DataArray>
            <DataArray Name="CONSTITUTIVE_MATRIX" NumberOfComponents="6" format="ascii" type="Float64">
              3.000000000e+00  4.000000000e+00  5.000000000e+00  6.000000000e+00  6.000000000e+00  8.000000000e+00  4.000000000e+00  5.000000000e+00  6.000000000e+00  7.000000000e+00  7.000000000e+00  9.000000000e+00  5.000000000e+00  6.000000000e+00  7.000000000e+00  8.000000000e+00  8.000000000e+00  1.000000000e+01  6.000000000e+00  7.000000000e+00  8.000000000e+00  9.000000000e+00  9.000000000e+00  1.100000000e+01  7.000000000e+00  8.000000000e+00  9.000000000e+00  1.000000000e+01  1.000000000e+01  1.200000000e+01  8.000000000e+00  9.000000000e+00  1.000000000e+01  1.100000000e+01  1.100000000e+01  1.300000000e+01
            </DataArray>
            <DataArray Name="DETERMINANTS_OF_JACOBIAN_PARENT" NumberOfComponents="7" format="ascii" type="Float64">
              3.000000000e+00  4.000000000e+00  5.000000000e+00  6.000000000e+00  7.000000000e+00  8.000000000e+00  9.000000000e+00  4.000000000e+00  5.000000000e+00  6.000000000e+00  7.000000000e+00  8.000000000e+00  9.000000000e+00  1.000000000e+01  5.000000000e+00  6.000000000e+00  7.000000000e+00  8.000000000e+00  9.000000000e+00  1.000000000e+01  1.100000000e+01  6.000000000e+00  7.000000000e+00  8.000000000e+00  9.000000000e+00  1.000000000e+01  1.100000000e+01  1.200000000e+01  7.000000000e+00  8.000000000e+00  9.000000000e+00  1.000000000e+01  1.100000000e+01  1.200000000e+01  1.300000000e+01  8.000000000e+00  9.000000000e+00  1.000000000e+01  1.100000000e+01  1.200000000e+01  1.300000000e+01  1.400000000e+01
            </DataArray>
            <DataArray Name="DISPLACEMENT" NumberOfComponents="3" format="ascii" type="Float64">
              3.000000000e+00  4.000000000e+00  5.000000000e+00  4.000000000e+00  5.000000000e+00  6.000000000e+00  5.000000000e+00  6.000000000e+00  7.000000000e+00  6.000000000e+00  7.000000000e+00  8.000000000e+00  7.000000000e+00  8.000000000e+00  9.000000000e+00  8.000000000e+00  9.000000000e+00  1.000000000e+01
            </DataArray>
            <DataArray Name="PRESSURE" NumberOfComponents="1" format="ascii" type="Float64">
              3.000000000e+00  4.000000000e+00  5.000000000e+00  6.000000000e+00  7.000000000e+00  8.000000000e+00
            </DataArray>
            <DataArray Name="exp_var_ACTIVATION_LEVEL" NumberOfComponents="1" format="ascii" type="Float64">
              3.000000000e+00  4.000000000e+00  5.000000000e+00  6.000000000e+00  7.000000000e+00  8.000000000e+00
            </DataArray>
            <DataArray Name="exp_var_CONSTITUTIVE_MATRIX" NumberOfComponents="6" format="ascii" type="Float64">
              3.000000000e+00  4.000000000e+00  5.000000000e+00  6.000000000e+00  6.000000000e+00  8.000000000e+00  4.000000000e+00  5.000000000e+00  6.000000000e+00  7.000000000e+00  7.000000000e+00  9.000000000e+00  5.000000000e+00  6.000000000e+00  7.000000000e+00  8.000000000e+00  8.000000000e+00  1.000000000e+01  6.000000000e+00  7.000000000e+00  8.000000000e+00  9.000000000e+00  9.000000000e+00  1.100000000e+01  7.000000000e+00  8.000000000e+00  9.000000000e+00  1.000000000e+01  1.000000000e+01  1.200000000e+01  8.000000000e+00  9.000000000e+00  1.000000000e+01  1.100000000e+01  1.100000000e+01  1.300000000e+01
            </DataArray>
            <DataArray Name="exp_var_DETERMINANTS_OF_JACOBIAN_PARENT" NumberOfComponents="7" format="ascii" type="Float64">
              3.000000000e+00  4.000000000e+00  5.000000000e+00  6.000000000e+00  7.000000000e+00  8.000000000e+00  9.000000000e+00  4.000000000e+00  5.000000000e+00  6.000000000e+00  7.000000000e+00  8.000000000e+00  9.000000000e+00  1.000000000e+01  5.000000000e+00  6.000000000e+00  7.000000000e+00  8.000000000e+00  9.000000000e+00  1.000000000e+01  1.100000000e+01  6.000000000e+00  7.000000000e+00  8.000000000e+00  9.000000000e+00  1.000000000e+01  1.100000000e+01  1.200000000e+01  7.000000000e+00  8.000000000e+00  9.000000000e+00  1.000000000e+01  1.100000000e+01  1.200000000e+01  1.300000000e+01  8.000000000e+00  9.000000000e+00  1.000000000e+01  1.100000000e+01  1.200000000e+01  1.300000000e+01  1.400000000e+01
            </DataArray>
            <DataArray Name="exp_var_DISPLACEMENT" NumberOfComponents="3" format="ascii" type="Float64">
              3.000000000e+00  4.000000000e+00  5.000000000e+00  4.000000000e+00  5.000000000e+00  6.000000000e+00  5.000000000e+00  6.000000000e+00  7.000000000e+00  6.000000000e+00  7.000000000e+00  8.000000000e+00  7.000000000e+00  8.000000000e+00  9.000000000e+00  8.000000000e+00  9.000000000e+00  1.000000000e+01
            </DataArray>
            <DataArray Name="exp_var_PRESSURE" NumberOfComponents="1" format="ascii" type="Float64">
              3.000000000e+00  4.000000000e+00  5.000000000e+00  6.000000000e+00  7.000000000e+00  8.000000000e+00
            </DataArray>
            <DataArray Name="ta_non_hist_CONSTITUTIVE_MATRIX" NumberOfComponents="6" format="ascii" type="Float64">
              3.000000000e+00  4.000000000e+00  5.000000000e+00  6.000000000e+00  6.000000000e+00  8.000000000e+00  4.000000000e+00  5.000000000e+00  6.000000000e+00  7.000000000e+00  7.000000000e+00  9.000000000e+00  5.000000000e+00  6.000000000e+00  7.000000000e+00  8.000000000e+00  8.000000000e+00  1.000000000e+01  6.000000000e+00  7.000000000e+00  8.000000000e+00  9.000000000e+00  9.000000000e+00  1.100000000e+01  7.000000000e+00  8.000000000e+00  9.000000000e+00  1.000000000e+01  1.000000000e+01  1.200000000e+01  8.000000000e+00  9.000000000e+00  1.000000000e+01  1.100000000e+01  1.100000000e+01  1.300000000e+01
            </DataArray>
            <DataArray Name="ta_non_hist_DETERMINANTS_OF_JACOBIAN_PARENT" NumberOfComponents="7" format="ascii" type="Float64">
              3.000000000e+00  4.000000000e+00  5.000000000e+00  6.000000000e+00  7.000000000e+00  8.000000000e+00  9.000000000e+00  4.000000000e+00  5.000000000e+00  6.000000000e+00  7.000000000e+00  8.000000000e+00  9.000000000e+00  1.000000000e+01  5.000000000e+00  6.000000000e+00  7.000000000e+00  8.000000000e+00  9.000000000e+00  1.000000000e+01  1.100000000e+01  6.000000000e+00  7.000000000e+00  8.000000000e+00  9.000000000e+00  1.000000000e+01  1.100000000e+01  1.200000000e+01  7.000000000e+00  8.000000000e+00  9.000000000e+00  1.000000000e+01  1.100000000e+01  1.200000000e+01  1.300000000e+01  8.000000000e+00  9.000000000e+00  1.000000000e+01  1.100000000e+01  1.200000000e+01  1.300000000e+01  1.400000000e+01
            </DataArray>
            <DataArray Name="ta_non_hist_DISPLACEMENT" NumberOfComponents="3" format="ascii" type="Float64">
              3.000000000e+00  4.000000000e+00  5.000000000e+00  4.000000000e+00  5.000000000e+00  6.000000000e+00  5.000000000e+00  6.000000000e+00  7.000000000e+00  6.000000000e+00  7.000000000e+00  8.000000000e+00  7.000000000e+00  8.000000000e+00  9.000000000e+00  8.000000000e+00  9.000000000e+00  1.000000000e+01
            </DataArray>
            <DataArray Name="ta_non_hist_PRESSURE" NumberOfComponents="1" format="ascii" type="Float64">
              3.000000000e+00  4.000000000e+00  5.000000000e+00  6.000000000e+00  7.000000000e+00  8.000000000e+00
            </DataArray>
            <DataArray Name="ta_non_hist_local_CONSTITUTIVE_MATRIX" NumberOfComponents="6" format="ascii" type="Float64">
              3.000000000e+00  4.000000000e+00  5.000000000e+00  6.000000000e+00  6.000000000e+00  8.000000000e+00  4.000000000e+00  5.000000000e+00  6.000000000e+00  7.000000000e+00  7.000000000e+00  9.000000000e+00  5.000000000e+00  6.000000000e+00  7.000000000e+00  8.000000000e+00  8.000000000e+00  1.000000000e+01  6.000000000e+00  7.000000000e+00  8.000000000e+00  9.000000000e+00  9.000000000e+00  1.100000000e+01  7.000000000e+00  8.000000000e+00  9.000000000e+00  1.000000000e+01  1.000000000e+01  1.200000000e+01  8.000000000e+00  9.000000000e+00  1.000000000e+01  1.100000000e+01  1.100000000e+01  1.300000000e+01
            </DataArray>
            <DataArray Name="ta_non_hist_local_DETERMINANTS_OF_JACOBIAN_PARENT" NumberOfComponents="7" format="ascii" type="Float64">
              3.000000000e+00  4.000000000e+00  5.000000000e+00  6.000000000e+00  7.000000000e+00  8.000000000e+00  9.000000000e+00  4.000000000e+00  5.000000000e+00  6.000000000e+00  7.000000000e+00  8.000000000e+00  9.000000000e+00  1.000000000e+01  5.000000000e+00  6.000000000e+00  7.000000000e+00  8.000000000e+00  9.000000000e+00  1.000000000e+01  1.100000000e+01  6.000000000e+00  7.000000000e+00  8.000000000e+00  9.000000000e+00  1.000000000e+01  1.100000000e+01  1.200000000e+01  7.000000000e+00  8.000000000e+00  9.000000000e+00  1.000000000e+01  1.100000000e+01  1.200000000e+01  1.300000000e+01  8.000000000e+00  9.000000000e+00  1.000000000e+01  1.100000000e+01  1.200000000e+01  1.300000000e+01  1.400000000e+01
            </DataArray>
            <DataArray Name="ta_non_hist_local_DISPLACEMENT" NumberOfComponents="3" format="ascii" type="Float64">
              3.000000000e+00  4.000000000e+00  5.000000000e+00  4.000000000e+00  5.000000000e+00  6.000000000e+00  5.000000000e+00  6.000000000e+00  7.000000000e+00  6.000000000e+00  7.000000000e+00  8.000000000e+00  7.000000000e+00  8.000000000e+00  9.000000000e+00  8.000000000e+00  9.000000000e+00  1.000000000e+01
            </DataArray>
            <DataArray Name="ta_non_hist_local_PRESSURE" NumberOfComponents="1" format="ascii" type="Float64">
              3.000000000e+00  4.000000000e+00  5.000000000e+00  6.000000000e+00  7.000000000e+00  8.000000000e+00
            </DataArray>
         </CellData>
      </Piece>
   </UnstructuredGrid>
</VTKFile>
