<?xml version="1.0"?>
<VTKFile byte_order="LittleEndian" type="UnstructuredGrid" version="0.1">
   <UnstructuredGrid>
      <Piece NumberOfCells="1" NumberOfPoints="4">
         <Points>
            <DataArray Name="Position" NumberOfComponents="3" format="ascii" type="Float64">
              0.0000000e+00  0.0000000e+00  0.0000000e+00  1.0000000e+00  0.0000000e+00  0.0000000e+00  1.0000000e+00  1.0000000e+00  0.0000000e+00  0.0000000e+00  1.0000000e+00  0.0000000e+00
            </DataArray>
         </Points>
         <Cells>
            <DataArray Name="connectivity" NumberOfComponents="1" format="ascii" type="Int32">
              0  1  2  3
            </DataArray>
            <DataArray Name="offsets" NumberOfComponents="1" format="ascii" type="Int32">
              4
            </DataArray>
            <DataArray Name="types" NumberOfComponents="1" format="ascii" type="UInt8">
              9
            </DataArray>
         </Cells>
         <PointData>
            <DataArray Name="control_2_combined_element_False" NumberOfComponents="3" format="ascii" type="Float64">
              9.2000000e+00  1.3800000e+01  1.8400000e+01  1.3800000e+01  1.8400000e+01  2.3000000e+01  1.8400000e+01  2.3000000e+01  2.7600000e+01  2.3000000e+01  2.7600000e+01  3.2200000e+01
            </DataArray>
            <DataArray Name="control_2_combined_element_True" NumberOfComponents="3" format="ascii" type="Float64">
              9.2000000e+01  1.3800000e+02  1.8400000e+02  1.3800000e+02  1.8400000e+02  2.3000000e+02  1.8400000e+02  2.3000000e+02  2.7600000e+02  2.3000000e+02  2.7600000e+02  3.2200000e+02
            </DataArray>
            <DataArray Name="control_2_data_nodal_vel__False" NumberOfComponents="3" format="ascii" type="Float64">
              4.6000000e+00  6.9000000e+00  9.2000000e+00  6.9000000e+00  9.2000000e+00  1.1500000e+01  9.2000000e+00  1.1500000e+01  1.3800000e+01  1.1500000e+01  1.3800000e+01  1.6100000e+01
            </DataArray>
            <DataArray Name="control_2_data_nodal_vel__True" NumberOfComponents="3" format="ascii" type="Float64">
              4.6000000e+01  6.9000000e+01  9.2000000e+01  6.9000000e+01  9.2000000e+01  1.1500000e+02  9.2000000e+01  1.1500000e+02  1.3800000e+02  1.1500000e+02  1.3800000e+02  1.6100000e+02
            </DataArray>
            <DataArray Name="policy_2_combined_element_False" NumberOfComponents="3" format="ascii" type="Float64">
              9.2000000e+00  1.3800000e+01  1.8400000e+01  1.3800000e+01  1.8400000e+01  2.3000000e+01  1.8400000e+01  2.3000000e+01  2.7600000e+01  2.3000000e+01  2.7600000e+01  3.2200000e+01
            </DataArray>
            <DataArray Name="policy_2_combined_element_True" NumberOfComponents="3" format="ascii" type="Float64">
              9.2000000e+01  1.3800000e+02  1.8400000e+02  1.3800000e+02  1.8400000e+02  2.3000000e+02  1.8400000e+02  2.3000000e+02  2.7600000e+02  2.3000000e+02  2.7600000e+02  3.2200000e+02
            </DataArray>
            <DataArray Name="policy_2_data_nodal_vel__False" NumberOfComponents="3" format="ascii" type="Float64">
              4.6000000e+00  6.9000000e+00  9.2000000e+00  6.9000000e+00  9.2000000e+00  1.1500000e+01  9.2000000e+00  1.1500000e+01  1.3800000e+01  1.1500000e+01  1.3800000e+01  1.6100000e+01
            </DataArray>
            <DataArray Name="policy_2_data_nodal_vel__True" NumberOfComponents="3" format="ascii" type="Float64">
              4.6000000e+01  6.9000000e+01  9.2000000e+01  6.9000000e+01  9.2000000e+01  1.1500000e+02  9.2000000e+01  1.1500000e+02  1.3800000e+02  1.1500000e+02  1.3800000e+02  1.6100000e+02
            </DataArray>
            <DataArray Name="resp_2_combined_element_False" NumberOfComponents="3" format="ascii" type="Float64">
              9.2000000e+00  1.3800000e+01  1.8400000e+01  1.3800000e+01  1.8400000e+01  2.3000000e+01  1.8400000e+01  2.3000000e+01  2.7600000e+01  2.3000000e+01  2.7600000e+01  3.2200000e+01
            </DataArray>
            <DataArray Name="resp_2_combined_element_True" NumberOfComponents="3" format="ascii" type="Float64">
              9.2000000e+01  1.3800000e+02  1.8400000e+02  1.3800000e+02  1.8400000e+02  2.3000000e+02  1.8400000e+02  2.3000000e+02  2.7600000e+02  2.3000000e+02  2.7600000e+02  3.2200000e+02
            </DataArray>
            <DataArray Name="resp_2_data_nodal_vel__False" NumberOfComponents="3" format="ascii" type="Float64">
              4.6000000e+00  6.9000000e+00  9.2000000e+00  6.9000000e+00  9.2000000e+00  1.1500000e+01  9.2000000e+00  1.1500000e+01  1.3800000e+01  1.1500000e+01  1.3800000e+01  1.6100000e+01
            </DataArray>
            <DataArray Name="resp_2_data_nodal_vel__True" NumberOfComponents="3" format="ascii" type="Float64">
              4.6000000e+01  6.9000000e+01  9.2000000e+01  6.9000000e+01  9.2000000e+01  1.1500000e+02  9.2000000e+01  1.1500000e+02  1.3800000e+02  1.1500000e+02  1.3800000e+02  1.6100000e+02
            </DataArray>
         </PointData>
         <CellData>
            <DataArray Name="control_2_combined_element_False" NumberOfComponents="3" format="ascii" type="Float64">
              9.2000000e+00  1.3800000e+01  1.8400000e+01
            </DataArray>
            <DataArray Name="control_2_combined_element_True" NumberOfComponents="3" format="ascii" type="Float64">
              9.2000000e+01  1.3800000e+02  1.8400000e+02
            </DataArray>
            <DataArray Name="control_2_data_element_acc_False" NumberOfComponents="3" format="ascii" type="Float64">
              4.6000000e+00  6.9000000e+00  9.2000000e+00
            </DataArray>
            <DataArray Name="control_2_data_element_acc_True" NumberOfComponents="3" format="ascii" type="Float64">
              4.6000000e+01  6.9000000e+01  9.2000000e+01
            </DataArray>
            <DataArray Name="policy_2_combined_element_False" NumberOfComponents="3" format="ascii" type="Float64">
              9.2000000e+00  1.3800000e+01  1.8400000e+01
            </DataArray>
            <DataArray Name="policy_2_combined_element_True" NumberOfComponents="3" format="ascii" type="Float64">
              9.2000000e+01  1.3800000e+02  1.8400000e+02
            </DataArray>
            <DataArray Name="policy_2_data_element_acc_False" NumberOfComponents="3" format="ascii" type="Float64">
              4.6000000e+00  6.9000000e+00  9.2000000e+00
            </DataArray>
            <DataArray Name="policy_2_data_element_acc_True" NumberOfComponents="3" format="ascii" type="Float64">
              4.6000000e+01  6.9000000e+01  9.2000000e+01
            </DataArray>
            <DataArray Name="resp_2_combined_element_False" NumberOfComponents="3" format="ascii" type="Float64">
              9.2000000e+00  1.3800000e+01  1.8400000e+01
            </DataArray>
            <DataArray Name="resp_2_combined_element_True" NumberOfComponents="3" format="ascii" type="Float64">
              9.2000000e+01  1.3800000e+02  1.8400000e+02
            </DataArray>
            <DataArray Name="resp_2_data_element_acc_False" NumberOfComponents="3" format="ascii" type="Float64">
              4.6000000e+00  6.9000000e+00  9.2000000e+00
            </DataArray>
            <DataArray Name="resp_2_data_element_acc_True" NumberOfComponents="3" format="ascii" type="Float64">
              4.6000000e+01  6.9000000e+01  9.2000000e+01
            </DataArray>
         </CellData>
      </Piece>
   </UnstructuredGrid>
</VTKFile>
