# vtk DataFile Version 4.0
vtk output
ASCII
DATASET UNSTRUCTURED_GRID
POINTS 82 float
2.1937565e-04 1.0000000e+00 -2.7847747e-05 
2.1936368e-04 1.0917346e-10 -2.7847769e-05 
1.0001955e+00 1.0000000e+00 -1.7445376e-04 
1.0001955e+00 1.1468450e-10 -1.7445374e-04 
2.0001562e+00 1.0000000e+00 -7.2740432e-04 
2.0001562e+00 1.2934973e-10 -7.2740414e-04 
3.0001030e+00 1.0000000e+00 -2.3708881e-03 
3.0001030e+00 1.7235727e-10 -2.3708877e-03 
4.0000448e+00 1.0000000e+00 -6.2798150e-03 
4.0000448e+00 2.8134980e-10 -6.2798141e-03 
4.9999924e+00 1.0000000e+00 -1.3840969e-02 
4.9999924e+00 5.0823357e-10 -1.3840968e-02 
5.9999528e+00 1.0000000e+00 -2.5776502e-02 
5.9999528e+00 8.9986135e-10 -2.5776500e-02 
6.9999256e+00 1.0000000e+00 -4.1465696e-02 
6.9999256e+00 1.4529459e-09 -4.1465692e-02 
7.9999142e+00 1.0000000e+00 -5.8706965e-02 
7.9999142e+00 2.1135438e-09 -5.8706962e-02 
8.9999352e+00 1.0000000e+00 -7.4493401e-02 
8.9999361e+00 2.7529572e-09 -7.4493401e-02 
1.0000009e+01 1.0000000e+00 -8.5859075e-02 
1.0000010e+01 3.1977117e-09 -8.5859075e-02 
1.1000117e+01 1.0000000e+00 -8.9610718e-02 
1.1000118e+01 3.2760852e-09 -8.9610711e-02 
1.2000170e+01 1.0000000e+00 -8.1280753e-02 
1.2000171e+01 2.8943528e-09 -8.1280746e-02 
1.2999970e+01 1.0000000e+00 -5.4000672e-02 
1.2999972e+01 1.9994917e-09 -5.4000642e-02 
1.3999342e+01 1.0000000e+00 -2.4837151e-03 
1.3999344e+01 6.5804828e-10 -2.4836548e-03 
1.4998300e+01 1.0000000e+00 7.2584458e-02 
1.4998302e+01 -9.7184261e-10 7.2584562e-02 
1.5997178e+01 1.0000000e+00 1.6115901e-01 
1.5997181e+01 -2.6211850e-09 1.6115913e-01 
1.6996525e+01 1.0000000e+00 2.4696572e-01 
1.6996529e+01 -3.9500998e-09 2.4696586e-01 
1.7996799e+01 1.0000000e+00 3.1451836e-01 
1.7996805e+01 -4.6132733e-09 3.1451845e-01 
1.8998079e+01 1.0000000e+00 3.5598263e-01 
1.8998085e+01 -4.4521276e-09 3.5598263e-01 
1.9999996e+01 1.0000000e+00 3.6971921e-01 
2.0000004e+01 -3.5410317e-09 3.6971912e-01 
2.1001915e+01 1.0000000e+00 3.5598257e-01 
2.1001921e+01 -2.1708062e-09 3.5598233e-01 
2.2003195e+01 1.0000000e+00 3.1451827e-01 
2.2003201e+01 -7.2577583e-10 3.1451795e-01 
2.3003471e+01 1.0000000e+00 2.4696563e-01 
2.3003477e+01 4.7485482e-10 2.4696526e-01 
2.4002819e+01 1.0000000e+00 1.6115892e-01 
2.4002823e+01 1.2853286e-09 1.6115858e-01 
2.5001698e+01 1.0000000e+00 7.2584383e-02 
2.5001701e+01 1.7240440e-09 7.2584115e-02 
2.6000656e+01 1.0000000e+00 -2.4837810e-03 
2.6000658e+01 1.8988142e-09 -2.4839614e-03 
2.7000029e+01 1.0000000e+00 -5.4000724e-02 
2.7000029e+01 1.9038653e-09 -5.4000832e-02 
2.7999828e+01 1.0000000e+00 -8.1280790e-02 
2.7999830e+01 1.7897985e-09 -8.1280850e-02 
2.8999882e+01 1.0000000e+00 -8.9610726e-02 
2.8999882e+01 1.5812844e-09 -8.9610763e-02 
2.9999990e+01 1.0000000e+00 -8.5859075e-02 
2.9999990e+01 1.3084522e-09 -8.5859098e-02 
3.1000065e+01 1.0000000e+00 -7.4493393e-02 
3.1000065e+01 9.9573727e-10 -7.4493401e-02 
3.2000084e+01 1.0000000e+00 -5.8706954e-02 
3.2000084e+01 6.7563738e-10 -5.8706962e-02 
3.3000076e+01 1.0000000e+00 -4.1465688e-02 
3.3000076e+01 3.7146081e-10 -4.1465692e-02 
3.4000046e+01 1.0000000e+00 -2.5776496e-02 
3.4000046e+01 1.0001138e-10 -2.5776498e-02 
3.5000008e+01 1.0000000e+00 -1.3840963e-02 
3.5000008e+01 -1.2716782e-10 -1.3840965e-02 
3.5999954e+01 1.0000000e+00 -6.2798080e-03 
3.5999954e+01 -2.9330846e-10 -6.2798094e-03 
3.6999897e+01 1.0000000e+00 -2.3708807e-03 
3.6999897e+01 -3.9490000e-10 -2.3708809e-03 
3.7999844e+01 1.0000000e+00 -7.2739727e-04 
3.7999844e+01 -4.3841064e-10 -7.2739646e-04 
3.8999805e+01 1.0000000e+00 -1.7444737e-04 
3.8999805e+01 -4.4208021e-10 -1.7444605e-04 
3.9999783e+01 1.0000000e+00 -2.7842085e-05 
3.9999779e+01 -4.2696963e-10 -2.7840741e-05 

CELLS 80 320
3 1 3 0
3 65 67 66
3 34 32 33
3 66 67 68
3 33 32 31
3 33 35 34
3 34 35 37
3 66 64 65
3 65 64 63
3 2 0 3
3 2 3 4
3 17 19 18
3 18 19 20
3 81 80 79
3 18 16 17
3 17 16 14
3 49 51 50
3 50 51 52
3 50 48 49
3 49 48 47
3 9 11 10
3 10 11 13
3 73 75 74
3 74 75 76
3 26 24 25
3 25 24 23
3 41 43 42
3 42 43 44
3 58 56 59
3 58 59 61
3 25 27 26
3 26 27 28
3 74 72 73
3 73 72 71
3 10 8 9
3 9 8 7
3 57 59 56
3 57 56 55
3 42 40 41
3 41 40 39
3 5 7 4
3 5 4 3
3 69 71 70
3 70 71 72
3 30 28 29
3 29 28 27
3 37 39 38
3 38 39 40
3 62 60 61
3 61 60 58
3 21 23 22
3 22 23 24
3 78 76 77
3 77 76 75
3 14 12 13
3 13 12 10
3 53 55 52
3 53 52 51
3 46 44 45
3 45 44 43
3 13 15 14
3 14 15 17
3 77 79 78
3 78 79 80
3 22 20 21
3 21 20 19
3 45 47 46
3 46 47 48
3 54 52 55
3 54 55 56
3 29 31 30
3 30 31 32
3 70 68 69
3 69 68 67
3 6 4 7
3 6 7 8
3 61 63 62
3 62 63 64
3 38 36 37
3 37 36 34

CELL_TYPES 80
5
5
5
5
5
5
5
5
5
5
5
5
5
5
5
5
5
5
5
5
5
5
5
5
5
5
5
5
5
5
5
5
5
5
5
5
5
5
5
5
5
5
5
5
5
5
5
5
5
5
5
5
5
5
5
5
5
5
5
5
5
5
5
5
5
5
5
5
5
5
5
5
5
5
5
5
5
5
5
5
POINT_DATA 82
FIELD FieldData 7
SHAPE_UPDATE 3 82  float
1.4847986e-04 1.3604288e-11 9.5255546e-02 
1.4854678e-04 1.3596728e-11 9.5255546e-02 
2.1773000e-04 2.0356819e-11 9.8689184e-02 
2.1782040e-04 2.0347357e-11 9.8689184e-02 
3.2981476e-04 3.1825671e-11 1.0146799e-01 
3.2993313e-04 3.1813094e-11 1.0146799e-01 
4.9109419e-04 4.9875631e-11 1.0281762e-01 
4.9124000e-04 4.9858524e-11 1.0281762e-01 
6.9289462e-04 7.6450180e-11 1.0268224e-01 
6.9302676e-04 7.6431632e-11 1.0268224e-01 
8.9819788e-04 1.0970436e-10 1.0182066e-01 
8.9824415e-04 1.0968790e-10 1.0182066e-01 
1.0488280e-03 1.4085351e-10 1.0092898e-01 
1.0486800e-03 1.4083640e-10 1.0092898e-01 
1.0787783e-03 1.5090065e-10 1.0032755e-01 
1.0782921e-03 1.5085695e-10 1.0032755e-01 
9.2890358e-04 1.0918415e-10 9.9836737e-02 
9.2790968e-04 1.0904809e-10 9.9836722e-02 
5.6316116e-04 -2.3362010e-11 9.8856054e-02 
5.6147587e-04 -2.3735978e-11 9.8856017e-02 
1.9230432e-05 -2.6656244e-10 9.6646152e-02 
1.6890504e-05 -2.6722474e-10 9.6646078e-02 
-6.3638616e-04 -6.6273903e-10 9.2062615e-02 
-6.3930458e-04 -6.6383710e-10 9.2062496e-02 
-1.2987438e-03 -1.2673487e-09 8.4815778e-02 
-1.3019176e-03 -1.2689362e-09 8.4815614e-02 
-1.9028396e-03 -2.1948658e-09 7.6038949e-02 
-1.9057911e-03 -2.1969586e-09 7.6038785e-02 
-2.4429401e-03 -3.5791625e-09 6.8573244e-02 
-2.4451902e-03 -3.5818273e-09 6.8573110e-02 
-2.9408981e-03 -5.4615530e-09 6.5493539e-02 
-2.9420205e-03 -5.4650178e-09 6.5493472e-02 
-3.2916248e-03 -7.5555517e-09 6.8423606e-02 
-3.2914295e-03 -7.5602200e-09 6.8423614e-02 
-3.2868031e-03 -9.2700851e-09 7.5860366e-02 
-3.2852173e-03 -9.2764356e-09 7.5860418e-02 
-2.7171082e-03 -9.9228536e-09 8.4423833e-02 
-2.7141671e-03 -9.9312354e-09 8.4423877e-02 
-1.5507950e-03 -9.1159880e-09 9.0846166e-02 
-1.5466757e-03 -9.1264214e-09 9.0846144e-02 
-2.4989351e-06 -6.9838317e-09 9.3183644e-02 
2.4304106e-06 -6.9959274e-09 9.3183495e-02 
1.5460640e-03 -4.1745345e-09 9.0846106e-02 
1.5512736e-03 -4.1875428e-09 9.0845816e-02 
2.7131157e-03 -1.5820587e-09 8.4423766e-02 
2.7180437e-03 -1.5949394e-09 8.4423371e-02 
3.2838655e-03 3.9092250e-11 7.5860389e-02 
3.2880786e-03 2.7539080e-11 7.5859964e-02 
3.2898735e-03 3.8696271e-10 6.8423785e-02 
3.2931655e-03 3.7777426e-10 6.8423413e-02 
2.9402880e-03 -3.0321012e-10 6.5493904e-02 
2.9426829e-03 -3.0959996e-10 6.5493628e-02 
2.4432812e-03 -1.4441499e-09 6.8573773e-02 
2.4449534e-03 -1.4480890e-09 6.8573579e-02 
1.9037935e-03 -2.4268707e-09 7.6039545e-02 
1.9049624e-03 -2.4292059e-09 7.6039426e-02 
1.2999672e-03 -2.8886771e-09 8.4816329e-02 
1.3008079e-03 -2.8901885e-09 8.4816262e-02 
6.3758006e-04 -2.7864655e-09 9.2063054e-02 
6.3819397e-04 -2.7875415e-09 9.2063017e-02 
-1.8256969e-05 -2.3005029e-09 9.6646450e-02 
-1.7813880e-05 -2.3011641e-09 9.6646428e-02 
-5.6248432e-04 -1.6755208e-09 9.8856226e-02 
-5.6212774e-04 -1.6757097e-09 9.8856211e-02 
-9.2856318e-04 -1.0968022e-09 9.9836811e-02 
-9.2823996e-04 -1.0964940e-09 9.9836811e-02 
-1.0787367e-03 -6.5353828e-10 1.0032757e-01 
-1.0783300e-03 -6.5293315e-10 1.0032757e-01 
-1.0490140e-03 -3.5604050e-10 1.0092898e-01 
-1.0484924e-03 -3.5535758e-10 1.0092898e-01 
-8.9852442e-04 -1.7063369e-10 1.0182063e-01 
-8.9791650e-04 -1.7001682e-10 1.0182065e-01 
-6.9326931e-04 -5.8109607e-11 1.0268222e-01 
-6.9265120e-04 -5.7610548e-11 1.0268223e-01 
-4.9144425e-04 1.0595253e-11 1.0281761e-01 
-4.9088924e-04 1.0985706e-11 1.0281762e-01 
-3.3010222e-04 5.1769283e-11 1.0146797e-01 
-3.2964526e-04 5.2092972e-11 1.0146798e-01 
-2.1795588e-04 7.6181700e-11 9.8689176e-02 
-2.1759426e-04 7.6442686e-11 9.8689184e-02 
-1.4865870e-04 8.8971795e-11 9.5255539e-02 
-1.4836778e-04 8.9187331e-11 9.5255546e-02 
SHAPE_CHANGE 3 82  float
2.1937565e-04 1.0924391e-10 -2.7847747e-05 
2.1936368e-04 1.0917346e-10 -2.7847769e-05 
1.9548139e-04 1.1475616e-10 -1.7445376e-04 
1.9546397e-04 1.1468450e-10 -1.7445374e-04 
1.5625317e-04 1.2940972e-10 -7.2740432e-04 
1.5622925e-04 1.2934973e-10 -7.2740414e-04 
1.0302196e-04 1.7235942e-10 -2.3708881e-03 
1.0299247e-04 1.7235727e-10 -2.3708877e-03 
4.4878809e-05 2.8117708e-10 -6.2798150e-03 
4.4847744e-05 2.8134980e-10 -6.2798141e-03 
-7.8235216e-06 5.0767063e-10 -1.3840969e-02 
-7.8509865e-06 5.0823357e-10 -1.3840968e-02 
-4.7186128e-05 8.9856839e-10 -2.5776502e-02 
-4.7169713e-05 8.9986135e-10 -2.5776500e-02 
-7.4583084e-05 1.4507767e-09 -4.1465696e-02 
-7.4545540e-05 1.4529459e-09 -4.1465692e-02 
-8.5713415e-05 2.1104882e-09 -5.8706965e-02 
-8.5641434e-05 2.1135438e-09 -5.8706962e-02 
-6.4439184e-05 2.7493696e-09 -7.4493401e-02 
-6.4291060e-05 2.7529572e-09 -7.4493401e-02 
8.7802264e-06 3.1942899e-09 -8.5859075e-02 
9.0878057e-06 3.1977117e-09 -8.5859075e-02 
1.1735133e-04 3.2735905e-09 -8.9610718e-02 
1.1792983e-04 3.2760852e-09 -8.9610711e-02 
1.7017403e-04 2.8932101e-09 -8.1280753e-02 
1.7111760e-04 2.8943528e-09 -8.1280746e-02 
-2.9328972e-05 1.9997899e-09 -5.4000672e-02 
-2.7953551e-05 1.9994917e-09 -5.4000642e-02 
-6.5816764e-04 6.5950129e-10 -2.4837151e-03 
-6.5637036e-04 6.5804828e-10 -2.4836548e-03 
-1.7006740e-03 -9.6959862e-10 7.2584458e-02 
-1.6984482e-03 -9.7184261e-10 7.2584562e-02 
-2.8220997e-03 -2.6184084e-09 1.6115901e-01 
-2.8193244e-03 -2.6211850e-09 1.6115913e-01 
-3.4752067e-03 -3.9469010e-09 2.4696572e-01 
-3.4716616e-03 -3.9500998e-09 2.4696586e-01 
-3.1996304e-03 -4.6097854e-09 3.1451836e-01 
-3.1949929e-03 -4.6132733e-09 3.1451845e-01 
-1.9210019e-03 -4.4484167e-09 3.5598263e-01 
-1.9151754e-03 -4.4521276e-09 3.5598263e-01 
-3.3956953e-06 -3.5372039e-09 3.6971921e-01 
3.3625784e-06 -3.5410317e-09 3.6971912e-01 
1.9145024e-03 -2.1670175e-09 3.5598257e-01 
1.9216080e-03 -2.1708062e-09 3.5598233e-01 
3.1939081e-03 -7.2225320e-10 3.1451827e-01 
3.2006481e-03 -7.2577583e-10 3.1451795e-01 
3.4705156e-03 4.7780530e-10 2.4696563e-01 
3.4762898e-03 4.7485482e-10 2.4696526e-01 
2.8184492e-03 1.2873941e-09 1.6115892e-01 
2.8229221e-03 1.2853286e-09 1.6115858e-01 
1.6979658e-03 1.7251103e-09 7.2584383e-02 
1.7011171e-03 1.7240440e-09 7.2584115e-02 
6.5625127e-04 1.8990294e-09 -2.4837810e-03 
6.5826107e-04 1.8988142e-09 -2.4839614e-03 
2.8059967e-05 1.9035769e-09 -5.4000724e-02 
2.9207349e-05 1.9038653e-09 -5.4000832e-02 
-1.7093583e-04 1.7893990e-09 -8.1280790e-02 
-1.7036474e-04 1.7897985e-09 -8.1280850e-02 
-1.1777513e-04 1.5811175e-09 -8.9610726e-02 
-1.1751225e-04 1.5812844e-09 -8.9610763e-02 
-8.9827254e-06 1.3086087e-09 -8.5859075e-02 
-8.8908255e-06 1.3084522e-09 -8.5859098e-02 
6.4360254e-05 9.9626185e-10 -7.4493393e-02 
6.4364642e-05 9.9573727e-10 -7.4493401e-02 
8.5694577e-05 6.7643741e-10 -5.8706954e-02 
8.5655403e-05 6.7563738e-10 -5.8706962e-02 
7.4596173e-05 3.7235626e-10 -4.1465688e-02 
7.4528572e-05 3.7146081e-10 -4.1465692e-02 
4.7224425e-05 1.0080749e-10 -2.5776496e-02 
4.7128779e-05 1.0001138e-10 -2.5776498e-02 
7.8995217e-06 -1.2662010e-10 -1.3840963e-02 
7.7734867e-06 -1.2716782e-10 -1.3840965e-02 
-4.4782024e-05 -2.9309066e-10 -6.2798080e-03 
-4.4945231e-05 -2.9330846e-10 -6.2798094e-03 
-1.0291207e-04 -3.9499606e-10 -2.3708807e-03 
-1.0310260e-04 -3.9490000e-10 -2.3708809e-03 
-1.5614158e-04 -4.3874601e-10 -7.2739727e-04 
-1.5634083e-04 -4.3841064e-10 -7.2739646e-04 
-1.9537700e-04 -4.4256190e-10 -1.7444737e-04 
-1.9556828e-04 -4.4208021e-10 -1.7444605e-04 
-2.1928175e-04 -4.2752463e-10 -2.7842085e-05 
-2.1945745e-04 -4.2696963e-10 -2.7840741e-05 
DF1DX 3 82  float
-1.4660950e-04 1.0965616e-11 -1.0000000e+00 
-1.4660948e-04 2.3972711e-11 -1.0000000e+00 
-3.4978928e-04 1.4961132e-12 -9.9999988e-01 
-3.4978925e-04 -2.8513839e-11 -9.9999988e-01 
-1.0982665e-03 -1.6456407e-10 -9.9999881e-01 
-1.0982663e-03 -1.2797635e-10 -9.9999881e-01 
-2.7763385e-03 -3.7391931e-10 -9.9999231e-01 
-2.7763385e-03 -3.6140213e-10 -9.9999231e-01 
-5.1264898e-03 -4.6423285e-10 -9.9997371e-01 
-6.3438355e-03 -5.2161897e-10 -9.9995977e-01 
-9.7478656e-03 -6.6850075e-10 -9.9990499e-01 
-9.7478647e-03 -4.5257265e-10 -9.9990499e-01 
-1.3810189e-02 -1.3301870e-09 -9.9980927e-01 
-1.3810189e-02 -1.3141639e-09 -9.9980927e-01 
-1.6461086e-02 -2.2170812e-09 -9.9972898e-01 
-1.6461086e-02 -2.2327451e-09 -9.9972898e-01 
-1.6509267e-02 -2.9895697e-09 -9.9972737e-01 
-1.6509267e-02 -2.9596323e-09 -9.9972737e-01 
-1.4309366e-02 -3.1593774e-09 -9.9979520e-01 
-1.2836430e-02 -3.5521226e-09 -9.9983519e-01 
-8.8262269e-03 -2.9443870e-09 -9.9992210e-01 
-6.2887920e-03 -3.2817238e-09 -9.9996042e-01 
2.7553798e-04 -8.9874397e-10 -9.9999994e-01 
4.3023759e-03 -6.0891225e-10 -9.9998146e-01 
1.4643985e-02 6.3678156e-09 -9.9978548e-01 
2.0956587e-02 8.6510044e-09 -9.9956065e-01 
3.5326961e-02 2.3346209e-08 -9.9875045e-01 
4.3377187e-02 2.8406369e-08 -9.9811488e-01 
5.9203934e-02 4.9868049e-08 -9.9648255e-01 
6.6975474e-02 5.7738710e-08 -9.9549401e-01 
-7.9153210e-02 -7.9169055e-08 9.9369502e-01 
-8.3572589e-02 -9.3096631e-08 9.9296618e-01 
8.7066412e-02 1.0692263e-07 -9.9236107e-01 
8.6150467e-02 1.3352187e-07 -9.9252218e-01 
7.6245628e-02 1.5592984e-07 -9.9415243e-01 
7.6245584e-02 1.4422736e-07 -9.9415243e-01 
5.4305024e-02 1.6698398e-07 -9.9704224e-01 
5.4304961e-02 1.7096028e-07 -9.9704224e-01 
3.2140408e-02 1.4051498e-07 -9.9896592e-01 
2.2927901e-02 1.7193389e-07 -9.9947405e-01 
4.5699454e-03 9.7859292e-08 -9.9997914e-01 
-4.5701177e-03 1.1568020e-07 -9.9997914e-01 
-2.2928057e-02 2.6502752e-08 -9.9947405e-01 
-3.2140546e-02 3.6366359e-08 -9.9896592e-01 
-4.9987555e-02 -5.0459786e-08 -9.9749500e-01 
-5.8617853e-02 -3.5982588e-08 -9.9655205e-01 
-7.3242605e-02 -9.3715791e-08 -9.9460644e-01 
-7.9245403e-02 -6.4244112e-08 -9.9368024e-01 
-8.6150430e-02 -7.4593949e-08 -9.9252218e-01 
-8.7066367e-02 -3.5831643e-08 -9.9236107e-01 
8.3572522e-02 1.1748171e-08 9.9296618e-01 
7.9153143e-02 -1.6101025e-08 9.9369502e-01 
-6.3092269e-02 4.6436224e-08 -9.9600339e-01 
-6.3092262e-02 5.3056716e-08 -9.9600339e-01 
-3.9353669e-02 6.2929203e-08 -9.9844891e-01 
-3.9353654e-02 6.1566219e-08 -9.9844891e-01 
-1.7800642e-02 5.1310678e-08 -9.9968302e-01 
-1.7800627e-02 4.9021246e-08 -9.9968302e-01 
-2.7551578e-04 2.7050630e-08 -9.9999994e-01 
-4.3023410e-03 3.9404814e-08 -9.9998146e-01 
7.5575486e-03 1.7732839e-08 -9.9994290e-01 
7.5575551e-03 1.9577028e-08 -9.9994290e-01 
1.2836438e-02 1.2280758e-08 -9.9983519e-01 
1.4309373e-02 7.8092031e-09 -9.9979520e-01 
1.6266903e-02 6.2219039e-09 -9.9973530e-01 
1.6751627e-02 3.7598178e-09 -9.9971932e-01 
1.6719509e-02 2.9070539e-09 -9.9972039e-01 
1.6202651e-02 1.6144254e-09 -9.9973738e-01 
1.4435416e-02 1.3101980e-09 -9.9979156e-01 
1.3184926e-02 7.3694112e-10 -9.9982613e-01 
1.0476715e-02 8.0637513e-10 -9.9989021e-01 
9.0189828e-03 4.5674867e-10 -9.9991864e-01 
6.3438364e-03 5.3984112e-10 -9.9995977e-01 
5.1264912e-03 4.3770994e-11 -9.9997371e-01 
3.1539267e-03 -9.0291394e-12 -9.9999005e-01 
2.3987500e-03 -6.1269889e-10 -9.9999422e-01 
1.2800327e-03 -7.4855744e-10 -9.9999839e-01 
9.1650104e-04 -1.1842987e-09 -9.9999917e-01 
4.1751604e-04 -1.2419579e-09 -9.9999982e-01 
2.8206181e-04 -1.3804313e-09 -9.9999994e-01 
1.4660880e-04 -1.3587148e-09 -1.0000000e+00 
1.4660881e-04 -1.3712953e-09 -1.0000000e+00 
DF1DX_MAPPED 3 82  float
-5.0436391e-04 -4.0271571e-11 -8.1965882e-01 
-5.0584151e-04 -3.9769264e-11 -8.1965882e-01 
-1.1372113e-03 -1.0651276e-10 -1.0114977e+00 
-1.1424199e-03 -1.0604766e-10 -1.0114976e+00 
-2.3010049e-03 -2.1848441e-10 -1.0727637e+00 
-2.3138151e-03 -2.1753714e-10 -1.0727636e+00 
-4.1373069e-03 -3.8037273e-10 -1.0564684e+00 
-4.1592880e-03 -3.7840783e-10 -1.0564681e+00 
-6.6760359e-03 -6.2745548e-10 -1.0280887e+00 
-6.7023514e-03 -6.2415695e-10 -1.0280885e+00 
-9.5506618e-03 -1.0001796e-09 -1.0089439e+00 
-9.5708584e-03 -9.9649167e-10 -1.0089437e+00 
-1.2090596e-02 -1.5064416e-09 -1.0021079e+00 
-1.2094038e-02 -1.5048118e-09 -1.0021079e+00 
-1.3439463e-02 -2.0434858e-09 -1.0005406e+00 
-1.3413461e-02 -2.0461164e-09 -1.0005411e+00 
-1.2742137e-02 -2.3223370e-09 -9.9896425e-01 
-1.2665477e-02 -2.3275724e-09 -9.9896502e-01 
-9.1644591e-03 -1.6729576e-09 -1.0006638e+00 
-8.9963619e-03 -1.6563872e-09 -1.0006618e+00 
-2.3070751e-03 7.7034928e-10 -9.9940896e-01 
-2.0426204e-03 8.1671092e-10 -9.9940383e-01 
6.3487692e-03 4.5185167e-09 -9.7247761e-01 
6.7237588e-03 4.6259392e-09 -9.7246420e-01 
1.5371014e-02 1.0021248e-08 -9.0403211e-01 
1.5820390e-02 1.0217438e-08 -9.0400881e-01 
2.0857107e-02 1.5784597e-08 -7.6445520e-01 
2.1290123e-02 1.6031276e-08 -7.6442766e-01 
2.3121536e-02 2.4924484e-08 -5.9713340e-01 
2.3434257e-02 2.5193094e-08 -5.9711283e-01 
2.7772082e-02 4.5110145e-08 -5.1524711e-01 
2.7905446e-02 4.5426358e-08 -5.1524091e-01 
3.7028644e-02 7.7912738e-08 -5.9433794e-01 
3.7002183e-02 7.8329471e-08 -5.9434378e-01 
4.3714799e-02 1.1075993e-07 -7.6274526e-01 
4.3547664e-02 1.1137035e-07 -7.6275611e-01 
3.9265778e-02 1.2614622e-07 -9.0249157e-01 
3.8934346e-02 1.2706523e-07 -9.0250146e-01 
2.2962103e-02 1.1531183e-07 -9.7130775e-01 
2.2447152e-02 1.1656065e-07 -9.7130996e-01 
3.2516647e-04 8.1797864e-08 -9.9837106e-01 
-3.2457360e-04 8.3278202e-08 -9.9835718e-01 
-2.2358878e-02 3.6038855e-08 -9.7132218e-01 
-2.3048986e-02 3.7610636e-08 -9.7128791e-01 
-3.8786322e-02 -4.5445652e-09 -9.0251541e-01 
-3.9412167e-02 -2.8971752e-09 -9.0246582e-01 
-4.3382630e-02 -2.5894193e-08 -7.6277226e-01 
-4.3878473e-02 -2.4341833e-08 -7.6271904e-01 
-3.6840722e-02 -2.2943951e-08 -5.9436250e-01 
-3.7189711e-02 -2.1798348e-08 -5.9431654e-01 
-2.7725255e-02 -2.6837679e-09 -5.1526397e-01 
-2.7953135e-02 -2.0929452e-09 -5.1523095e-01 
-2.3208542e-02 2.0917660e-08 -5.9714043e-01 
-2.3349004e-02 2.1107313e-08 -5.9712064e-01 
-2.1025453e-02 3.6038088e-08 -7.6445508e-01 
-2.1123668e-02 3.6126892e-08 -7.6444560e-01 
-1.5553478e-02 3.8941639e-08 -9.0402997e-01 
-1.5639316e-02 3.9085290e-08 -9.0402621e-01 
-6.4988788e-03 3.2846422e-08 -9.7247672e-01 
-6.5743760e-03 3.3026566e-08 -9.7247499e-01 
2.1971024e-03 2.3361109e-08 -9.9940944e-01 
2.1523240e-03 2.3489426e-08 -9.9940836e-01 
9.0875570e-03 1.4693582e-08 -1.0006644e+00 
9.0732025e-03 1.4697631e-08 -1.0006633e+00 
1.2708978e-02 8.3239744e-09 -9.9896502e-01 
1.2698634e-02 8.2281577e-09 -9.9896473e-01 
1.3444646e-02 4.4060280e-09 -1.0005404e+00 
1.3408271e-02 4.2920072e-09 -1.0005411e+00 
1.2126310e-02 2.1918651e-09 -1.0021069e+00 
1.2058309e-02 2.0984690e-09 -1.0021083e+00 
9.6044913e-03 9.7605402e-10 -1.0089427e+00 
9.5170140e-03 9.1102953e-10 -1.0089443e+00 
6.7321649e-03 2.2663042e-10 -1.0280877e+00 
6.6462117e-03 1.7840039e-10 -1.0280890e+00 
4.1825585e-03 -3.4211681e-10 -1.0564677e+00 
4.1140309e-03 -3.8221598e-10 -1.0564685e+00 
2.3306380e-03 -7.9053031e-10 -1.0727633e+00 
2.2841801e-03 -8.2413859e-10 -1.0727638e+00 
1.1535103e-03 -1.0339002e-09 -1.0114975e+00 
1.1261201e-03 -1.0560902e-09 -1.0114977e+00 
5.1206013e-04 -9.7370578e-10 -8.1965876e-01 
4.9814471e-04 -9.8578667e-10 -8.1965888e-01 
SEARCH_DIRECTION 3 82  float
5.0436391e-04 4.0271571e-11 8.1965882e-01 
5.0584151e-04 3.9769264e-11 8.1965882e-01 
1.1372113e-03 1.0651276e-10 1.0114977e+00 
1.1424199e-03 1.0604766e-10 1.0114976e+00 
2.3010049e-03 2.1848441e-10 1.0727637e+00 
2.3138151e-03 2.1753714e-10 1.0727636e+00 
4.1373069e-03 3.8037273e-10 1.0564684e+00 
4.1592880e-03 3.7840783e-10 1.0564681e+00 
6.6760359e-03 6.2745548e-10 1.0280887e+00 
6.7023514e-03 6.2415695e-10 1.0280885e+00 
9.5506618e-03 1.0001796e-09 1.0089439e+00 
9.5708584e-03 9.9649167e-10 1.0089437e+00 
1.2090596e-02 1.5064416e-09 1.0021079e+00 
1.2094038e-02 1.5048118e-09 1.0021079e+00 
1.3439463e-02 2.0434858e-09 1.0005406e+00 
1.3413461e-02 2.0461164e-09 1.0005411e+00 
1.2742137e-02 2.3223370e-09 9.9896425e-01 
1.2665477e-02 2.3275724e-09 9.9896502e-01 
9.1644591e-03 1.6729576e-09 1.0006638e+00 
8.9963619e-03 1.6563872e-09 1.0006618e+00 
2.3070751e-03 -7.7034928e-10 9.9940896e-01 
2.0426204e-03 -8.1671092e-10 9.9940383e-01 
-6.3487692e-03 -4.5185167e-09 9.7247761e-01 
-6.7237588e-03 -4.6259392e-09 9.7246420e-01 
-1.5371014e-02 -1.0021248e-08 9.0403211e-01 
-1.5820390e-02 -1.0217438e-08 9.0400881e-01 
-2.0857107e-02 -1.5784597e-08 7.6445520e-01 
-2.1290123e-02 -1.6031276e-08 7.6442766e-01 
-2.3121536e-02 -2.4924484e-08 5.9713340e-01 
-2.3434257e-02 -2.5193094e-08 5.9711283e-01 
-2.7772082e-02 -4.5110145e-08 5.1524711e-01 
-2.7905446e-02 -4.5426358e-08 5.1524091e-01 
-3.7028644e-02 -7.7912738e-08 5.9433794e-01 
-3.7002183e-02 -7.8329471e-08 5.9434378e-01 
-4.3714799e-02 -1.1075993e-07 7.6274526e-01 
-4.3547664e-02 -1.1137035e-07 7.6275611e-01 
-3.9265778e-02 -1.2614622e-07 9.0249157e-01 
-3.8934346e-02 -1.2706523e-07 9.0250146e-01 
-2.2962103e-02 -1.1531183e-07 9.7130775e-01 
-2.2447152e-02 -1.1656065e-07 9.7130996e-01 
-3.2516647e-04 -8.1797864e-08 9.9837106e-01 
3.2457360e-04 -8.3278202e-08 9.9835718e-01 
2.2358878e-02 -3.6038855e-08 9.7132218e-01 
2.3048986e-02 -3.7610636e-08 9.7128791e-01 
3.8786322e-02 4.5445652e-09 9.0251541e-01 
3.9412167e-02 2.8971752e-09 9.0246582e-01 
4.3382630e-02 2.5894193e-08 7.6277226e-01 
4.3878473e-02 2.4341833e-08 7.6271904e-01 
3.6840722e-02 2.2943951e-08 5.9436250e-01 
3.7189711e-02 2.1798348e-08 5.9431654e-01 
2.7725255e-02 2.6837679e-09 5.1526397e-01 
2.7953135e-02 2.0929452e-09 5.1523095e-01 
2.3208542e-02 -2.0917660e-08 5.9714043e-01 
2.3349004e-02 -2.1107313e-08 5.9712064e-01 
2.1025453e-02 -3.6038088e-08 7.6445508e-01 
2.1123668e-02 -3.6126892e-08 7.6444560e-01 
1.5553478e-02 -3.8941639e-08 9.0402997e-01 
1.5639316e-02 -3.9085290e-08 9.0402621e-01 
6.4988788e-03 -3.2846422e-08 9.7247672e-01 
6.5743760e-03 -3.3026566e-08 9.7247499e-01 
-2.1971024e-03 -2.3361109e-08 9.9940944e-01 
-2.1523240e-03 -2.3489426e-08 9.9940836e-01 
-9.0875570e-03 -1.4693582e-08 1.0006644e+00 
-9.0732025e-03 -1.4697631e-08 1.0006633e+00 
-1.2708978e-02 -8.3239744e-09 9.9896502e-01 
-1.2698634e-02 -8.2281577e-09 9.9896473e-01 
-1.3444646e-02 -4.4060280e-09 1.0005404e+00 
-1.3408271e-02 -4.2920072e-09 1.0005411e+00 
-1.2126310e-02 -2.1918651e-09 1.0021069e+00 
-1.2058309e-02 -2.0984690e-09 1.0021083e+00 
-9.6044913e-03 -9.7605402e-10 1.0089427e+00 
-9.5170140e-03 -9.1102953e-10 1.0089443e+00 
-6.7321649e-03 -2.2663042e-10 1.0280877e+00 
-6.6462117e-03 -1.7840039e-10 1.0280890e+00 
-4.1825585e-03 3.4211681e-10 1.0564677e+00 
-4.1140309e-03 3.8221598e-10 1.0564685e+00 
-2.3306380e-03 7.9053031e-10 1.0727633e+00 
-2.2841801e-03 8.2413859e-10 1.0727638e+00 
-1.1535103e-03 1.0339002e-09 1.0114975e+00 
-1.1261201e-03 1.0560902e-09 1.0114977e+00 
-5.1206013e-04 9.7370578e-10 8.1965876e-01 
-4.9814471e-04 9.8578667e-10 8.1965888e-01 
CONTROL_POINT_UPDATE 3 82  float
5.0436392e-05 4.0271571e-12 8.1965879e-02 
5.0584149e-05 3.9769264e-12 8.1965879e-02 
1.1372113e-04 1.0651275e-11 1.0114978e-01 
1.1424199e-04 1.0604766e-11 1.0114977e-01 
2.3010050e-04 2.1848441e-11 1.0727637e-01 
2.3138151e-04 2.1753713e-11 1.0727635e-01 
4.1373071e-04 3.8037275e-11 1.0564683e-01 
4.1592878e-04 3.7840783e-11 1.0564681e-01 
6.6760357e-04 6.2745545e-11 1.0280887e-01 
6.7023514e-04 6.2415698e-11 1.0280884e-01 
9.5506618e-04 1.0001796e-10 1.0089438e-01 
9.5708587e-04 9.9649171e-11 1.0089437e-01 
1.2090596e-03 1.5064416e-10 1.0021078e-01 
1.2094037e-03 1.5048118e-10 1.0021079e-01 
1.3439463e-03 2.0434858e-10 1.0005406e-01 
1.3413461e-03 2.0461165e-10 1.0005411e-01 
1.2742137e-03 2.3223369e-10 9.9896424e-02 
1.2665476e-03 2.3275723e-10 9.9896498e-02 
9.1644586e-04 1.6729576e-10 1.0006637e-01 
8.9963619e-04 1.6563872e-10 1.0006619e-01 
2.3070750e-04 -7.7034927e-11 9.9940896e-02 
2.0426205e-04 -8.1671093e-11 9.9940382e-02 
-6.3487695e-04 -4.5185167e-10 9.7247757e-02 
-6.7237590e-04 -4.6259394e-10 9.7246416e-02 
-1.5371015e-03 -1.0021248e-09 9.0403207e-02 
-1.5820389e-03 -1.0217438e-09 9.0400882e-02 
-2.0857106e-03 -1.5784597e-09 7.6445520e-02 
-2.1290123e-03 -1.6031276e-09 7.6442771e-02 
-2.3121536e-03 -2.4924482e-09 5.9713341e-02 
-2.3434258e-03 -2.5193092e-09 5.9711281e-02 
-2.7772083e-03 -4.5110147e-09 5.1524714e-02 
-2.7905446e-03 -4.5426360e-09 5.1524088e-02 
-3.7028643e-03 -7.7912734e-09 5.9433796e-02 
-3.7002184e-03 -7.8329467e-09 5.9434377e-02 
-4.3714796e-03 -1.1075993e-08 7.6274529e-02 
-4.3547666e-03 -1.1137034e-08 7.6275609e-02 
-3.9265780e-03 -1.2614622e-08 9.0249158e-02 
-3.8934348e-03 -1.2706523e-08 9.0250142e-02 
-2.2962103e-03 -1.1531184e-08 9.7130775e-02 
-2.2447153e-03 -1.1656065e-08 9.7130999e-02 
-3.2516647e-05 -8.1797866e-09 9.9837102e-02 
3.2457359e-05 -8.3278202e-09 9.9835716e-02 
2.2358878e-03 -3.6038854e-09 9.7132221e-02 
2.3048986e-03 -3.7610635e-09 9.7128794e-02 
3.8786321e-03 4.5445650e-10 9.0251543e-02 
3.9412165e-03 2.8971750e-10 9.0246581e-02 
4.3382631e-03 2.5894193e-09 7.6277226e-02 
4.3878476e-03 2.4341833e-09 7.6271899e-02 
3.6840721e-03 2.2943951e-09 5.9436250e-02 
3.7189710e-03 2.1798348e-09 5.9431653e-02 
2.7725257e-03 2.6837677e-10 5.1526394e-02 
2.7953135e-03 2.0929451e-10 5.1523097e-02 
2.3208542e-03 -2.0917661e-09 5.9714042e-02 
2.3349004e-03 -2.1107314e-09 5.9712067e-02 
2.1025455e-03 -3.6038088e-09 7.6445512e-02 
2.1123670e-03 -3.6126890e-09 7.6444559e-02 
1.5553478e-03 -3.8941641e-09 9.0402998e-02 
1.5639316e-03 -3.9085291e-09 9.0402618e-02 
6.4988789e-04 -3.2846421e-09 9.7247668e-02 
6.5743760e-04 -3.3026564e-09 9.7247496e-02 
-2.1971023e-04 -2.3361109e-09 9.9940948e-02 
-2.1523239e-04 -2.3489426e-09 9.9940836e-02 
-9.0875570e-04 -1.4693582e-09 1.0006643e-01 
-9.0732030e-04 -1.4697631e-09 1.0006633e-01 
-1.2708977e-03 -8.3239748e-10 9.9896505e-02 
-1.2698635e-03 -8.2281576e-10 9.9896468e-02 
-1.3444646e-03 -4.4060280e-10 1.0005404e-01 
-1.3408271e-03 -4.2920070e-10 1.0005410e-01 
-1.2126310e-03 -2.1918650e-10 1.0021070e-01 
-1.2058310e-03 -2.0984689e-10 1.0021083e-01 
-9.6044911e-04 -9.7605410e-11 1.0089427e-01 
-9.5170137e-04 -9.1102952e-11 1.0089443e-01 
-6.7321648e-04 -2.2663043e-11 1.0280877e-01 
-6.6462118e-04 -1.7840038e-11 1.0280890e-01 
-4.1825586e-04 3.4211682e-11 1.0564677e-01 
-4.1140310e-04 3.8221596e-11 1.0564685e-01 
-2.3306379e-04 7.9053035e-11 1.0727634e-01 
-2.2841802e-04 8.2413860e-11 1.0727637e-01 
-1.1535102e-04 1.0339003e-10 1.0114975e-01 
-1.1261201e-04 1.0560903e-10 1.0114978e-01 
-5.1206014e-05 9.7370577e-11 8.1965871e-02 
-4.9814469e-05 9.8578666e-11 8.1965886e-02 
CONTROL_POINT_CHANGE 3 82  float
2.3827676e-04 9.5939083e-11 -1.8539986e-06 
2.3824844e-04 9.5223399e-11 -1.8546796e-06 
2.5105479e-04 1.1854519e-10 -1.9343522e-06 
2.5095476e-04 1.1777491e-10 -1.9333102e-06 
1.9561959e-04 1.1949773e-10 2.4987298e-06 
1.9537318e-04 1.1868827e-10 2.5031939e-06 
1.0512948e-04 1.1028044e-10 1.2895427e-05 
1.0470616e-04 1.0921748e-10 1.2903302e-05 
2.1665403e-05 1.3168501e-10 -1.3196220e-03 
2.1158367e-05 1.3064544e-10 -1.3196133e-03 
-3.4254335e-05 2.5795127e-10 -6.0563353e-03 
-3.4715395e-05 2.5873062e-10 -6.0563278e-03 
-6.2635430e-05 5.9122351e-10 -1.7890381e-02 
-6.2685504e-05 5.9899041e-10 -1.7890379e-02 
-7.9777717e-05 1.1898038e-09 -3.7977874e-02 
-7.9828773e-05 1.2095971e-09 -3.7977863e-02 
-1.0443947e-04 2.0403830e-09 -6.2042356e-02 
-1.0466988e-04 2.0788433e-09 -6.2042337e-02 
-1.3766164e-04 2.9853553e-09 -8.2144961e-02 
-1.3789412e-04 3.0409768e-09 -8.2144953e-02 
-1.5265711e-04 3.7349963e-09 -9.3857929e-02 
-1.5195512e-04 3.7934598e-09 -9.3857996e-02 
1.8648258e-05 4.0145127e-09 -1.0117356e-01 
2.2371800e-05 4.0521053e-09 -1.0117368e-01 
3.5864516e-04 3.6383012e-09 -1.0274374e-01 
3.6819838e-04 3.6484995e-09 -1.0274366e-01 
7.3651597e-04 2.6647924e-09 -9.2861652e-02 
7.5302389e-04 2.6510512e-09 -9.2861108e-02 
4.8788378e-04 1.1932663e-09 -5.1132493e-02 
5.0996582e-04 1.1680588e-09 -5.1131364e-02 
-1.1023418e-03 -7.6331735e-10 4.1397233e-02 
-1.0779544e-03 -7.9316387e-10 4.1398775e-02 
-3.6109381e-03 -3.0254772e-09 1.6969651e-01 
-3.5858466e-03 -3.0576368e-09 1.6969804e-01 
-5.3964807e-03 -5.0165521e-09 2.8720379e-01 
-5.3660078e-03 -5.0518105e-09 2.8720507e-01 
-5.1902039e-03 -6.0290115e-09 3.5973504e-01 
-5.1435265e-03 -6.0683196e-09 3.5973588e-01 
-3.1074123e-03 -5.7265028e-09 3.9041501e-01 
-3.0379640e-03 -5.7702394e-09 3.9041519e-01 
-4.3870896e-05 -4.2606239e-09 3.9988118e-01 
4.3843971e-05 -4.3058401e-09 3.9988017e-01 
3.0257811e-03 -2.1307391e-09 3.9041609e-01 
3.1195316e-03 -2.1739237e-09 3.9041355e-01 
5.1238304e-03 -8.1299821e-11 3.5973686e-01 
5.2098208e-03 -1.2559073e-10 3.5973316e-01 
5.3467178e-03 1.2858942e-09 2.8720596e-01 
5.4156920e-03 1.2438311e-09 2.8720194e-01 
3.5741271e-03 1.8546837e-09 1.6969869e-01 
3.6225980e-03 1.8267992e-09 1.6969517e-01 
1.0746367e-03 1.9757467e-09 4.1399028e-02 
1.1056240e-03 1.9679893e-09 4.1396499e-02 
-5.0757936e-04 2.0233124e-09 -5.1131345e-02 
-4.9028866e-04 2.0301179e-09 -5.1132847e-02 
-7.4867997e-04 2.0491993e-09 -9.2861123e-02 
-7.4086798e-04 2.0601858e-09 -9.2861854e-02 
-3.6473226e-04 1.9417972e-09 -1.0274360e-01 
-3.6211492e-04 1.9510848e-09 -1.0274390e-01 
-2.0724019e-05 1.6850226e-09 -1.0117356e-01 
-2.0299862e-05 1.6887785e-09 -1.0117370e-01 
1.5225168e-04 1.3496222e-09 -9.3857884e-02 
1.5235490e-04 1.3494590e-09 -9.3858011e-02 
1.3809639e-04 9.9111486e-10 -8.2144916e-02 
1.3745266e-04 9.8302411e-10 -8.2144968e-02 
1.0484581e-04 6.5120476e-10 -6.2042318e-02 
1.0425753e-04 6.3790934e-10 -6.2042356e-02 
8.0002130e-05 3.3361772e-10 -3.7977856e-02 
7.9600257e-05 3.1940250e-10 -3.7977874e-02 
6.3097294e-05 4.4250950e-11 -1.7890371e-02 
6.2221538e-05 3.3230606e-11 -1.7890386e-02 
3.5033572e-05 -2.0355963e-10 -6.0563223e-03 