# vtk DataFile Version 4.0
vtk output
ASCII
DATASET UNSTRUCTURED_GRID
POINTS 82 float
2.1937565e-04 1.0000000e+00 -2.7847748e-05
2.1936367e-04 1.0917346e-10 -2.7847770e-05
1.0001955e+00 1.0000000e+00 -1.7445375e-04
1.0001955e+00 1.1468450e-10 -1.7445375e-04
2.0001563e+00 1.0000000e+00 -7.2740432e-04
2.0001562e+00 1.2934972e-10 -7.2740417e-04
3.0001030e+00 1.0000000e+00 -2.3708880e-03
3.0001030e+00 1.7235726e-10 -2.3708876e-03
4.0000449e+00 1.0000000e+00 -6.2798150e-03
4.0000448e+00 2.8134979e-10 -6.2798143e-03
4.9999922e+00 1.0000000e+00 -1.3840969e-02
4.9999921e+00 5.0823358e-10 -1.3840968e-02
5.9999528e+00 1.0000000e+00 -2.5776501e-02
5.9999528e+00 8.9986133e-10 -2.5776500e-02
6.9999254e+00 1.0000000e+00 -4.1465695e-02
6.9999255e+00 1.4529459e-09 -4.1465693e-02
7.9999143e+00 1.0000000e+00 -5.8706964e-02
7.9999144e+00 2.1135437e-09 -5.8706962e-02
8.9999356e+00 1.0000000e+00 -7.4493400e-02
8.9999357e+00 2.7529573e-09 -7.4493398e-02
1.0000009e+01 1.0000000e+00 -8.5859079e-02
1.0000009e+01 3.1977116e-09 -8.5859078e-02
1.1000117e+01 1.0000000e+00 -8.9610715e-02
1.1000118e+01 3.2760852e-09 -8.9610713e-02
1.2000170e+01 1.0000000e+00 -8.1280755e-02
1.2000171e+01 2.8943527e-09 -8.1280746e-02
1.2999971e+01 1.0000000e+00 -5.4000672e-02
1.2999972e+01 1.9994917e-09 -5.4000644e-02
1.3999342e+01 1.0000000e+00 -2.4837151e-03
1.3999344e+01 6.5804826e-10 -2.4836547e-03
1.4998299e+01 1.0000000e+00 7.2584459e-02
1.4998302e+01 -9.7184255e-10 7.2584559e-02
1.5997178e+01 1.0000000e+00 1.6115900e-01
1.5997181e+01 -2.6211851e-09 1.6115913e-01
1.6996525e+01 1.0000000e+00 2.4696573e-01
1.6996528e+01 -3.9500997e-09 2.4696586e-01
1.7996800e+01 1.0000000e+00 3.1451835e-01
1.7996805e+01 -4.6132735e-09 3.1451844e-01
1.8998079e+01 1.0000000e+00 3.5598262e-01
1.8998085e+01 -4.4521277e-09 3.5598263e-01
1.9999997e+01 1.0000000e+00 3.6971921e-01
2.0000003e+01 -3.5410317e-09 3.6971911e-01
2.1001915e+01 1.0000000e+00 3.5598256e-01
2.1001922e+01 -2.1708062e-09 3.5598234e-01
2.2003194e+01 1.0000000e+00 3.1451826e-01
2.2003201e+01 -7.2577581e-10 3.1451793e-01
2.3003471e+01 1.0000000e+00 2.4696563e-01
2.3003476e+01 4.7485480e-10 2.4696526e-01
2.4002818e+01 1.0000000e+00 1.6115892e-01
2.4002823e+01 1.2853286e-09 1.6115858e-01
2.5001698e+01 1.0000000e+00 7.2584384e-02
2.5001701e+01 1.7240440e-09 7.2584116e-02
2.6000656e+01 1.0000000e+00 -2.4837809e-03
2.6000658e+01 1.8988142e-09 -2.4839615e-03
2.7000028e+01 1.0000000e+00 -5.4000724e-02
2.7000029e+01 1.9038652e-09 -5.4000833e-02
2.7999829e+01 1.0000000e+00 -8.1280790e-02
2.7999830e+01 1.7897985e-09 -8.1280849e-02
2.8999882e+01 1.0000000e+00 -8.9610728e-02
2.8999882e+01 1.5812844e-09 -8.9610761e-02
2.9999991e+01 1.0000000e+00 -8.5859078e-02
2.9999991e+01 1.3084523e-09 -8.5859095e-02
3.1000064e+01 1.0000000e+00 -7.4493391e-02
3.1000064e+01 9.9573728e-10 -7.4493401e-02
3.2000086e+01 1.0000000e+00 -5.8706955e-02
3.2000086e+01 6.7563737e-10 -5.8706961e-02
3.3000075e+01 1.0000000e+00 -4.1465688e-02
3.3000075e+01 3.7146081e-10 -4.1465691e-02
3.4000047e+01 1.0000000e+00 -2.5776496e-02
3.4000047e+01 1.0001138e-10 -2.5776498e-02
3.5000008e+01 1.0000000e+00 -1.3840963e-02
3.5000008e+01 -1.2716781e-10 -1.3840965e-02
3.5999955e+01 1.0000000e+00 -6.2798082e-03
3.5999955e+01 -2.9330846e-10 -6.2798095e-03
3.6999897e+01 1.0000000e+00 -2.3708807e-03
3.6999897e+01 -3.9490000e-10 -2.3708809e-03
3.7999844e+01 1.0000000e+00 -7.2739728e-04
3.7999844e+01 -4.3841063e-10 -7.2739644e-04
3.8999805e+01 1.0000000e+00 -1.7444737e-04
3.8999804e+01 -4.4208021e-10 -1.7444605e-04
3.9999781e+01 1.0000000e+00 -2.7842085e-05
3.9999781e+01 -4.2696961e-10 -2.7840740e-05

CELLS 80 320
3 1 3 0
3 65 67 66
3 34 32 33
3 66 67 68
3 33 32 31
3 33 35 34
3 34 35 37
3 66 64 65
3 65 64 63
3 2 0 3
3 2 3 4
3 17 19 18
3 18 19 20
3 81 80 79
3 18 16 17
3 17 16 14
3 49 51 50
3 50 51 52
3 50 48 49
3 49 48 47
3 9 11 10
3 10 11 13
3 73 75 74
3 74 75 76
3 26 24 25
3 25 24 23
3 41 43 42
3 42 43 44
3 58 56 59
3 58 59 61
3 25 27 26
3 26 27 28
3 74 72 73
3 73 72 71
3 10 8 9
3 9 8 7
3 57 59 56
3 57 56 55
3 42 40 41
3 41 40 39
3 5 7 4
3 5 4 3
3 69 71 70
3 70 71 72
3 30 28 29
3 29 28 27
3 37 39 38
3 38 39 40
3 62 60 61
3 61 60 58
3 21 23 22
3 22 23 24
3 78 76 77
3 77 76 75
3 14 12 13
3 13 12 10
3 53 55 52
3 53 52 51
3 46 44 45
3 45 44 43
3 13 15 14
3 14 15 17
3 77 79 78
3 78 79 80
3 22 20 21
3 21 20 19
3 45 47 46
3 46 47 48
3 54 52 55
3 54 55 56
3 29 31 30
3 30 31 32
3 70 68 69
3 69 68 67
3 6 4 7
3 6 7 8
3 61 63 62
3 62 63 64
3 38 36 37
3 37 36 34

CELL_TYPES 80
5
5
5
5
5
5
5
5
5
5
5
5
5
5
5
5
5
5
5
5
5
5
5
5
5
5
5
5
5
5
5
5
5
5
5
5
5
5
5
5
5
5
5
5
5
5
5
5
5
5
5
5
5
5
5
5
5
5
5
5
5
5
5
5
5
5
5
5
5
5
5
5
5
5
5
5
5
5
5
5
POINT_DATA 82
FIELD FieldData 7
SHAPE_UPDATE 3 82  float
1.4847985e-04 1.3604288e-11 9.5255546e-02
1.4854678e-04 1.3596729e-11 9.5255545e-02
2.1773000e-04 2.0356819e-11 9.8689187e-02
2.1782040e-04 2.0347358e-11 9.8689186e-02
3.2981476e-04 3.1825672e-11 1.0146799e-01
3.2993313e-04 3.1813094e-11 1.0146799e-01
4.9109418e-04 4.9875632e-11 1.0281763e-01
4.9123999e-04 4.9858523e-11 1.0281763e-01
6.9289464e-04 7.6450181e-11 1.0268224e-01
6.9302677e-04 7.6431632e-11 1.0268224e-01
8.9819790e-04 1.0970436e-10 1.0182066e-01
8.9824415e-04 1.0968790e-10 1.0182065e-01
1.0488280e-03 1.4085351e-10 1.0092898e-01
1.0486800e-03 1.4083640e-10 1.0092898e-01
1.0787783e-03 1.5090065e-10 1.0032755e-01
1.0782922e-03 1.5085695e-10 1.0032755e-01
9.2890360e-04 1.0918416e-10 9.9836735e-02
9.2790969e-04 1.0904809e-10 9.9836720e-02
5.6316116e-04 -2.3362011e-11 9.8856056e-02
5.6147586e-04 -2.3735979e-11 9.8856014e-02
1.9230432e-05 -2.6656245e-10 9.6646152e-02
1.6890505e-05 -2.6722475e-10 9.6646075e-02
-6.3638613e-04 -6.6273904e-10 9.2062616e-02
-6.3930457e-04 -6.6383711e-10 9.2062493e-02
-1.2987437e-03 -1.2673487e-09 8.4815775e-02
-1.3019176e-03 -1.2689362e-09 8.4815615e-02
-1.9028396e-03 -2.1948659e-09 7.6038952e-02
-1.9057911e-03 -2.1969586e-09 7.6038783e-02
-2.4429402e-03 -3.5791625e-09 6.8573246e-02
-2.4451901e-03 -3.5818273e-09 6.8573112e-02
-2.9408980e-03 -5.4615531e-09 6.5493537e-02
-2.9420206e-03 -5.4650178e-09 6.5493472e-02
-3.2916248e-03 -7.5555518e-09 6.8423607e-02
-3.2914295e-03 -7.5602202e-09 6.8423615e-02
-3.2868032e-03 -9.2700848e-09 7.5860369e-02
-3.2852173e-03 -9.2764352e-09 7.5860422e-02
-2.7171082e-03 -9.9228535e-09 8.4423831e-02
-2.7141671e-03 -9.9312354e-09 8.4423875e-02
-1.5507951e-03 -9.1159882e-09 9.0846169e-02
-1.5466756e-03 -9.1264211e-09 9.0846141e-02
-2.4989352e-06 -6.9838316e-09 9.3183646e-02
2.4304107e-06 -6.9959273e-09 9.3183494e-02
1.5460641e-03 -4.1745347e-09 9.0846108e-02
1.5512736e-03 -4.1875427e-09 9.0845817e-02
2.7131157e-03 -1.5820587e-09 8.4423765e-02
2.7180439e-03 -1.5949394e-09 8.4423373e-02
3.2838655e-03 3.9092250e-11 7.5860386e-02
3.2880785e-03 2.7539081e-11 7.5859966e-02
3.2898734e-03 3.8696272e-10 6.8423785e-02
3.2931655e-03 3.7777426e-10 6.8423414e-02
2.9402880e-03 -3.0321013e-10 6.5493907e-02
2.9426830e-03 -3.0959995e-10 6.5493625e-02
2.4432813e-03 -1.4441499e-09 6.8573771e-02
2.4449535e-03 -1.4480890e-09 6.8573581e-02
1.9037935e-03 -2.4268708e-09 7.6039543e-02
1.9049624e-03 -2.4292060e-09 7.6039426e-02
1.2999672e-03 -2.8886770e-09 8.4816328e-02
1.3008079e-03 -2.8901885e-09 8.4816261e-02
6.3758006e-04 -2.7864656e-09 9.2063053e-02
6.3819397e-04 -2.7875416e-09 9.2063017e-02
-1.8256969e-05 -2.3005030e-09 9.6646447e-02
-1.7813879e-05 -2.3011642e-09 9.6646429e-02
-5.6248430e-04 -1.6755209e-09 9.8856224e-02
-5.6212771e-04 -1.6757097e-09 9.8856213e-02
-9.2856315e-04 -1.0968022e-09 9.9836812e-02
-9.2823997e-04 -1.0964940e-09 9.9836810e-02
-1.0787368e-03 -6.5353828e-10 1.0032757e-01
-1.0783300e-03 -6.5293318e-10 1.0032758e-01
-1.0490141e-03 -3.5604050e-10 1.0092898e-01
-1.0484923e-03 -3.5535757e-10 1.0092898e-01
-8.9852445e-04 -1.7063368e-10 1.0182064e-01
-8.9791648e-04 -1.7001681e-10 1.0182065e-01
-6.9326931e-04 -5.8109606e-11 1.0268222e-01
-6.9265119e-04 -5.7610549e-11 1.0268223e-01
-4.9144426e-04 1.0595254e-11 1.0281761e-01
-4.9088924e-04 1.0985707e-11 1.0281762e-01
-3.3010221e-04 5.1769283e-11 1.0146798e-01
-3.2964526e-04 5.2092973e-11 1.0146798e-01
-2.1795588e-04 7.6181698e-11 9.8689178e-02
-2.1759427e-04 7.6442686e-11 9.8689182e-02
-1.4865871e-04 8.8971792e-11 9.5255539e-02
-1.4836777e-04 8.9187329e-11 9.5255543e-02
SHAPE_CHANGE 3 82  float
2.1937565e-04 1.0924390e-10 -2.7847748e-05
2.1936367e-04 1.0917346e-10 -2.7847770e-05
1.9548139e-04 1.1475616e-10 -1.7445375e-04
1.9546398e-04 1.1468450e-10 -1.7445375e-04
1.5625316e-04 1.2940972e-10 -7.2740432e-04
1.5622924e-04 1.2934972e-10 -7.2740417e-04
1.0302197e-04 1.7235942e-10 -2.3708880e-03
1.0299247e-04 1.7235726e-10 -2.3708876e-03
4.4878808e-05 2.8117707e-10 -6.2798150e-03
4.4847744e-05 2.8134979e-10 -6.2798143e-03
-7.8235216e-06 5.0767061e-10 -1.3840969e-02
-7.8509868e-06 5.0823358e-10 -1.3840968e-02
-4.7186128e-05 8.9856840e-10 -2.5776501e-02
-4.7169714e-05 8.9986133e-10 -2.5776500e-02
-7.4583082e-05 1.4507767e-09 -4.1465695e-02
-7.4545543e-05 1.4529459e-09 -4.1465693e-02
-8.5713415e-05 2.1104881e-09 -5.8706964e-02
-8.5641431e-05 2.1135437e-09 -5.8706962e-02
-6.4439187e-05 2.7493696e-09 -7.4493400e-02
-6.4291062e-05 2.7529573e-09 -7.4493398e-02
8.7802265e-06 3.1942899e-09 -8.5859079e-02
9.0878060e-06 3.1977116e-09 -8.5859078e-02
1.1735133e-04 3.2735904e-09 -8.9610715e-02
1.1792984e-04 3.2760852e-09 -8.9610713e-02
1.7017403e-04 2.8932101e-09 -8.1280755e-02
1.7111760e-04 2.8943527e-09 -8.1280746e-02
-2.9328972e-05 1.9997900e-09 -5.4000672e-02
-2.7953551e-05 1.9994917e-09 -5.4000644e-02
-6.5816763e-04 6.5950127e-10 -2.4837151e-03
-6.5637039e-04 6.5804826e-10 -2.4836547e-03
-1.7006739e-03 -9.6959862e-10 7.2584459e-02
-1.6984482e-03 -9.7184255e-10 7.2584559e-02
-2.8220997e-03 -2.6184084e-09 1.6115900e-01
-2.8193244e-03 -2.6211851e-09 1.6115913e-01
-3.4752066e-03 -3.9469012e-09 2.4696573e-01
-3.4716617e-03 -3.9500997e-09 2.4696586e-01
-3.1996305e-03 -4.6097855e-09 3.1451835e-01
-3.1949929e-03 -4.6132735e-09 3.1451844e-01
-1.9210020e-03 -4.4484168e-09 3.5598262e-01
-1.9151753e-03 -4.4521277e-09 3.5598263e-01
-3.3956952e-06 -3.5372039e-09 3.6971921e-01
3.3625782e-06 -3.5410317e-09 3.6971911e-01
1.9145023e-03 -2.1670175e-09 3.5598256e-01
1.9216080e-03 -2.1708062e-09 3.5598234e-01
3.1939082e-03 -7.2225321e-10 3.1451826e-01
3.2006481e-03 -7.2577581e-10 3.1451793e-01
3.4705155e-03 4.7780531e-10 2.4696563e-01
3.4762898e-03 4.7485480e-10 2.4696526e-01
2.8184491e-03 1.2873941e-09 1.6115892e-01
2.8229221e-03 1.2853286e-09 1.6115858e-01
1.6979657e-03 1.7251103e-09 7.2584384e-02
1.7011172e-03 1.7240440e-09 7.2584116e-02
6.5625129e-04 1.8990293e-09 -2.4837809e-03
6.5826108e-04 1.8988142e-09 -2.4839615e-03
2.8059967e-05 1.9035770e-09 -5.4000724e-02
2.9207349e-05 1.9038652e-09 -5.4000833e-02
-1.7093583e-04 1.7893990e-09 -8.1280790e-02
-1.7036474e-04 1.7897985e-09 -8.1280849e-02
-1.1777513e-04 1.5811174e-09 -8.9610728e-02
-1.1751226e-04 1.5812844e-09 -8.9610761e-02
-8.9827257e-06 1.3086087e-09 -8.5859078e-02
-8.8908257e-06 1.3084523e-09 -8.5859095e-02
6.4360257e-05 9.9626186e-10 -7.4493391e-02
6.4364642e-05 9.9573728e-10 -7.4493401e-02
8.5694575e-05 6.7643739e-10 -5.8706955e-02
8.5655404e-05 6.7563737e-10 -5.8706961e-02
7.4596174e-05 3.7235625e-10 -4.1465688e-02
7.4528576e-05 3.7146081e-10 -4.1465691e-02
4.7224425e-05 1.0080749e-10 -2.5776496e-02
4.7128779e-05 1.0001138e-10 -2.5776498e-02
7.8995221e-06 -1.2662011e-10 -1.3840963e-02
7.7734863e-06 -1.2716781e-10 -1.3840965e-02
-4.4782024e-05 -2.9309068e-10 -6.2798082e-03
-4.4945231e-05 -2.9330846e-10 -6.2798095e-03
-1.0291207e-04 -3.9499605e-10 -2.3708807e-03
-1.0310260e-04 -3.9490000e-10 -2.3708809e-03
-1.5614159e-04 -4.3874600e-10 -7.2739728e-04
-1.5634083e-04 -4.3841063e-10 -7.2739644e-04
-1.9537700e-04 -4.4256191e-10 -1.7444737e-04
-1.9556828e-04 -4.4208021e-10 -1.7444605e-04
-2.1928175e-04 -4.2752462e-10 -2.7842085e-05
-2.1945745e-04 -4.2696961e-10 -2.7840740e-05
DF1DX 3 82  float
-1.4660949e-04 1.0965609e-11 -9.9999998e-01
-1.4660948e-04 2.3972683e-11 -9.9999998e-01
-3.4978928e-04 1.4961271e-12 -9.9999988e-01
-3.4978924e-04 -2.8513835e-11 -9.9999988e-01
-1.0982665e-03 -1.6456406e-10 -9.9999879e-01
-1.0982664e-03 -1.2797634e-10 -9.9999879e-01
-2.7763385e-03 -3.7391933e-10 -9.9999229e-01
-2.7763384e-03 -3.6140215e-10 -9.9999229e-01
-5.1264899e-03 -4.6423288e-10 -9.9997372e-01
-6.3438354e-03 -5.2161901e-10 -9.9995975e-01
-9.7478652e-03 -6.6850079e-10 -9.9990497e-01
-9.7478649e-03 -4.5257267e-10 -9.9990497e-01
-1.3810189e-02 -1.3301869e-09 -9.9980924e-01
-1.3810189e-02 -1.3141639e-09 -9.9980924e-01
-1.6461086e-02 -2.2170812e-09 -9.9972896e-01
-1.6461085e-02 -2.2327450e-09 -9.9972896e-01
-1.6509266e-02 -2.9895697e-09 -9.9972737e-01
-1.6509266e-02 -2.9596323e-09 -9.9972737e-01
-1.4309366e-02 -3.1593774e-09 -9.9979520e-01
-1.2836430e-02 -3.5521225e-09 -9.9983520e-01
-8.8262267e-03 -2.9443870e-09 -9.9992209e-01
-6.2887921e-03 -3.2817238e-09 -9.9996045e-01
2.7553800e-04 -8.9874395e-10 -9.9999992e-01
4.3023761e-03 -6.0891226e-10 -9.9998149e-01
1.4643985e-02 6.3678154e-09 -9.9978551e-01
2.0956586e-02 8.6510047e-09 -9.9956063e-01
3.5326963e-02 2.3346208e-08 -9.9875044e-01
4.3377187e-02 2.8406368e-08 -9.9811487e-01
5.9203935e-02 4.9868048e-08 -9.9648252e-01
6.6975476e-02 5.7738709e-08 -9.9549398e-01
-7.9153210e-02 -7.9169055e-08 9.9369502e-01
-8.3572586e-02 -9.3096632e-08 9.9296615e-01
8.7066413e-02 1.0692263e-07 -9.9236109e-01
8.6150470e-02 1.3352187e-07 -9.9252218e-01
7.6245629e-02 1.5592984e-07 -9.9415241e-01
7.6245583e-02 1.4422735e-07 -9.9415242e-01
5.4305023e-02 1.6698399e-07 -9.9704222e-01
5.4304962e-02 1.7096028e-07 -9.9704222e-01
3.2140410e-02 1.4051498e-07 -9.9896592e-01
2.2927900e-02 1.7193389e-07 -9.9947403e-01
4.5699452e-03 9.7859291e-08 -9.9997912e-01
-4.5701178e-03 1.1568020e-07 -9.9997911e-01
-2.2928058e-02 2.6502752e-08 -9.9947403e-01
-3.2140544e-02 3.6366359e-08 -9.9896592e-01
-4.9987553e-02 -5.0459786e-08 -9.9749497e-01
-5.8617851e-02 -3.5982586e-08 -9.9655206e-01
-7.3242606e-02 -9.3715791e-08 -9.9460643e-01
-7.9245401e-02 -6.4244115e-08 -9.9368023e-01
-8.6150430e-02 -7.4593952e-08 -9.9252219e-01
-8.7066368e-02 -3.5831644e-08 -9.9236109e-01
8.3572519e-02 1.1748171e-08 9.9296616e-01
7.9153144e-02 -1.6101024e-08 9.9369503e-01
-6.3092270e-02 4.6436223e-08 -9.9600339e-01
-6.3092262e-02 5.3056715e-08 -9.9600339e-01
-3.9353669e-02 6.2929203e-08 -9.9844888e-01
-3.9353653e-02 6.1566217e-08 -9.9844888e-01
-1.7800641e-02 5.1310678e-08 -9.9968304e-01
-1.7800626e-02 4.9021245e-08 -9.9968304e-01
-2.7551576e-04 2.7050631e-08 -9.9999992e-01
-4.3023409e-03 3.9404813e-08 -9.9998149e-01
7.5575486e-03 1.7732839e-08 -9.9994288e-01
7.5575549e-03 1.9577028e-08 -9.9994288e-01
1.2836438e-02 1.2280758e-08 -9.9983520e-01
1.4309373e-02 7.8092029e-09 -9.9979520e-01
1.6266903e-02 6.2219039e-09 -9.9973532e-01
1.6751627e-02 3.7598177e-09 -9.9971930e-01
1.6719510e-02 2.9070539e-09 -9.9972038e-01
1.6202652e-02 1.6144253e-09 -9.9973741e-01
1.4435416e-02 1.3101979e-09 -9.9979158e-01
1.3184926e-02 7.3694110e-10 -9.9982613e-01
1.0476715e-02 8.0637513e-10 -9.9989023e-01
9.0189825e-03 4.5674865e-10 -9.9991865e-01
6.3438365e-03 5.3984113e-10 -9.9995975e-01
5.1264913e-03 4.3770975e-11 -9.9997372e-01
3.1539267e-03 -9.0291764e-12 -9.9999005e-01
2.3987500e-03 -6.1269894e-10 -9.9999425e-01
1.2800327e-03 -7.4855746e-10 -9.9999836e-01
9.1650106e-04 -1.1842987e-09 -9.9999916e-01
4.1751604e-04 -1.2419579e-09 -9.9999983e-01
2.8206182e-04 -1.3804313e-09 -9.9999992e-01
1.4660880e-04 -1.3587148e-09 -9.9999998e-01
1.4660881e-04 -1.3712953e-09 -9.9999998e-01
DF1DX_MAPPED 3 82  float
-5.0436393e-04 -4.0271575e-11 -8.1965881e-01
-5.0584150e-04 -3.9769270e-11 -8.1965879e-01
-1.1372113e-03 -1.0651276e-10 -1.0114977e+00
-1.1424199e-03 -1.0604767e-10 -1.0114977e+00
-2.3010051e-03 -2.1848442e-10 -1.0727637e+00
-2.3138150e-03 -2.1753714e-10 -1.0727635e+00
-4.1373070e-03 -3.8037275e-10 -1.0564684e+00
-4.1592878e-03 -3.7840785e-10 -1.0564681e+00
-6.6760360e-03 -6.2745548e-10 -1.0280887e+00
-6.7023513e-03 -6.2415698e-10 -1.0280884e+00
-9.5506618e-03 -1.0001796e-09 -1.0089439e+00
-9.5708584e-03 -9.9649172e-10 -1.0089437e+00
-1.2090596e-02 -1.5064416e-09 -1.0021078e+00
-1.2094038e-02 -1.5048118e-09 -1.0021079e+00
-1.3439463e-02 -2.0434858e-09 -1.0005406e+00
-1.3413461e-02 -2.0461165e-09 -1.0005411e+00
-1.2742137e-02 -2.3223369e-09 -9.9896427e-01
-1.2665476e-02 -2.3275723e-09 -9.9896502e-01
-9.1644586e-03 -1.6729575e-09 -1.0006637e+00
-8.9963618e-03 -1.6563873e-09 -1.0006619e+00
-2.3070750e-03 7.7034930e-10 -9.9940893e-01
-2.0426205e-03 8.1671092e-10 -9.9940385e-01
6.3487693e-03 4.5185168e-09 -9.7247759e-01
6.7237589e-03 4.6259393e-09 -9.7246418e-01
1.5371015e-02 1.0021248e-08 -9.0403210e-01
1.5820390e-02 1.0217438e-08 -9.0400881e-01
2.0857107e-02 1.5784597e-08 -7.6445519e-01
2.1290123e-02 1.6031276e-08 -7.6442768e-01
2.3121535e-02 2.4924483e-08 -5.9713342e-01
2.3434258e-02 2.5193093e-08 -5.9711282e-01
2.7772083e-02 4.5110146e-08 -5.1524712e-01
2.7905446e-02 4.5426359e-08 -5.1524088e-01
3.7028643e-02 7.7912735e-08 -5.9433797e-01
3.7002184e-02 7.8329468e-08 -5.9434376e-01
4.3714798e-02 1.1075993e-07 -7.6274527e-01
4.3547665e-02 1.1137035e-07 -7.6275610e-01
3.9265779e-02 1.2614622e-07 -9.0249157e-01
3.8934347e-02 1.2706523e-07 -9.0250144e-01
2.2962103e-02 1.1531184e-07 -9.7130774e-01
2.2447153e-02 1.1656065e-07 -9.7130999e-01
3.2516649e-04 8.1797867e-08 -9.9837106e-01
-3.2457359e-04 8.3278203e-08 -9.9835716e-01
-2.2358878e-02 3.6038854e-08 -9.7132218e-01
-2.3048986e-02 3.7610636e-08 -9.7128790e-01
-3.8786322e-02 -4.5445651e-09 -9.0251542e-01
-3.9412167e-02 -2.8971751e-09 -9.0246581e-01
-4.3382631e-02 -2.5894194e-08 -7.6277229e-01
-4.3878475e-02 -2.4341833e-08 -7.6271902e-01
-3.6840721e-02 -2.2943951e-08 -5.9436251e-01
-3.7189710e-02 -2.1798348e-08 -5.9431652e-01
-2.7725256e-02 -2.6837678e-09 -5.1526395e-01
-2.7953135e-02 -2.0929451e-09 -5.1523098e-01
-2.3208542e-02 2.0917661e-08 -5.9714041e-01
-2.3349005e-02 2.1107314e-08 -5.9712067e-01
-2.1025454e-02 3.6038087e-08 -7.6445510e-01
-2.1123668e-02 3.6126891e-08 -7.6444559e-01
-1.5553478e-02 3.8941640e-08 -9.0402997e-01
-1.5639316e-02 3.9085290e-08 -9.0402620e-01
-6.4988789e-03 3.2846421e-08 -9.7247670e-01
-6.5743760e-03 3.3026565e-08 -9.7247497e-01
2.1971023e-03 2.3361108e-08 -9.9940946e-01
2.1523239e-03 2.3489425e-08 -9.9940836e-01
9.0875572e-03 1.4693582e-08 -1.0006643e+00
9.0732028e-03 1.4697631e-08 -1.0006633e+00
1.2708977e-02 8.3239747e-09 -9.9896503e-01
1.2698634e-02 8.2281577e-09 -9.9896470e-01
1.3444646e-02 4.4060280e-09 -1.0005404e+00
1.3408270e-02 4.2920070e-09 -1.0005410e+00
1.2126309e-02 2.1918651e-09 -1.0021069e+00
1.2058310e-02 2.0984689e-09 -1.0021083e+00
9.6044910e-03 9.7605405e-10 -1.0089427e+00
9.5170138e-03 9.1102950e-10 -1.0089443e+00
6.7321648e-03 2.2663041e-10 -1.0280877e+00
6.6462119e-03 1.7840038e-10 -1.0280890e+00
4.1825587e-03 -3.4211683e-10 -1.0564677e+00
4.1140310e-03 -3.8221598e-10 -1.0564685e+00
2.3306379e-03 -7.9053032e-10 -1.0727633e+00
2.2841803e-03 -8.2413861e-10 -1.0727638e+00
1.1535103e-03 -1.0339002e-09 -1.0114975e+00
1.1261201e-03 -1.0560902e-09 -1.0114978e+00
5.1206014e-04 -9.7370577e-10 -8.1965873e-01
4.9814470e-04 -9.8578666e-10 -8.1965885e-01
SEARCH_DIRECTION 3 82  float
5.0436393e-04 4.0271575e-11 8.1965881e-01
5.0584150e-04 3.9769270e-11 8.1965879e-01
1.1372113e-03 1.0651276e-10 1.0114977e+00
1.1424199e-03 1.0604767e-10 1.0114977e+00
2.3010051e-03 2.1848442e-10 1.0727637e+00
2.3138150e-03 2.1753714e-10 1.0727635e+00
4.1373070e-03 3.8037275e-10 1.0564684e+00
4.1592878e-03 3.7840785e-10 1.0564681e+00
6.6760360e-03 6.2745548e-10 1.0280887e+00
6.7023513e-03 6.2415698e-10 1.0280884e+00
9.5506618e-03 1.0001796e-09 1.0089439e+00
9.5708584e-03 9.9649172e-10 1.0089437e+00
1.2090596e-02 1.5064416e-09 1.0021078e+00
1.2094038e-02 1.5048118e-09 1.0021079e+00
1.3439463e-02 2.0434858e-09 1.0005406e+00
1.3413461e-02 2.0461165e-09 1.0005411e+00
1.2742137e-02 2.3223369e-09 9.9896427e-01
1.2665476e-02 2.3275723e-09 9.9896502e-01
9.1644586e-03 1.6729575e-09 1.0006637e+00
8.9963618e-03 1.6563873e-09 1.0006619e+00
2.3070750e-03 -7.7034930e-10 9.9940893e-01
2.0426205e-03 -8.1671092e-10 9.9940385e-01
-6.3487693e-03 -4.5185168e-09 9.7247759e-01
-6.7237589e-03 -4.6259393e-09 9.7246418e-01
-1.5371015e-02 -1.0021248e-08 9.0403210e-01
-1.5820390e-02 -1.0217438e-08 9.0400881e-01
-2.0857107e-02 -1.5784597e-08 7.6445519e-01
-2.1290123e-02 -1.6031276e-08 7.6442768e-01
-2.3121535e-02 -2.4924483e-08 5.9713342e-01
-2.3434258e-02 -2.5193093e-08 5.9711282e-01
-2.7772083e-02 -4.5110146e-08 5.1524712e-01
-2.7905446e-02 -4.5426359e-08 5.1524088e-01
-3.7028643e-02 -7.7912735e-08 5.9433797e-01
-3.7002184e-02 -7.8329468e-08 5.9434376e-01
-4.3714798e-02 -1.1075993e-07 7.6274527e-01
-4.3547665e-02 -1.1137035e-07 7.6275610e-01
-3.9265779e-02 -1.2614622e-07 9.0249157e-01
-3.8934347e-02 -1.2706523e-07 9.0250144e-01
-2.2962103e-02 -1.1531184e-07 9.7130774e-01
-2.2447153e-02 -1.1656065e-07 9.7130999e-01
-3.2516649e-04 -8.1797867e-08 9.9837106e-01
3.2457359e-04 -8.3278203e-08 9.9835716e-01
2.2358878e-02 -3.6038854e-08 9.7132218e-01
2.3048986e-02 -3.7610636e-08 9.7128790e-01
3.8786322e-02 4.5445651e-09 9.0251542e-01
3.9412167e-02 2.8971751e-09 9.0246581e-01
4.3382631e-02 2.5894194e-08 7.6277229e-01
4.3878475e-02 2.4341833e-08 7.6271902e-01
3.6840721e-02 2.2943951e-08 5.9436251e-01
3.7189710e-02 2.1798348e-08 5.9431652e-01
2.7725256e-02 2.6837678e-09 5.1526395e-01
2.7953135e-02 2.0929451e-09 5.1523098e-01
2.3208542e-02 -2.0917661e-08 5.9714041e-01
2.3349005e-02 -2.1107314e-08 5.9712067e-01
2.1025454e-02 -3.6038087e-08 7.6445510e-01
2.1123668e-02 -3.6126891e-08 7.6444559e-01
1.5553478e-02 -3.8941640e-08 9.0402997e-01
1.5639316e-02 -3.9085290e-08 9.0402620e-01
6.4988789e-03 -3.2846421e-08 9.7247670e-01
6.5743760e-03 -3.3026565e-08 9.7247497e-01
-2.1971023e-03 -2.3361108e-08 9.9940946e-01
-2.1523239e-03 -2.3489425e-08 9.9940836e-01
-9.0875572e-03 -1.4693582e-08 1.0006643e+00
-9.0732028e-03 -1.4697631e-08 1.0006633e+00
-1.2708977e-02 -8.3239747e-09 9.9896503e-01
-1.2698634e-02 -8.2281577e-09 9.9896470e-01
-1.3444646e-02 -4.4060280e-09 1.0005404e+00
-1.3408270e-02 -4.2920070e-09 1.0005410e+00
-1.2126309e-02 -2.1918651e-09 1.0021069e+00
-1.2058310e-02 -2.0984689e-09 1.0021083e+00
-9.6044910e-03 -9.7605405e-10 1.0089427e+00
-9.5170138e-03 -9.1102950e-10 1.0089443e+00
-6.7321648e-03 -2.2663041e-10 1.0280877e+00
-6.6462119e-03 -1.7840038e-10 1.0280890e+00
-4.1825587e-03 3.4211683e-10 1.0564677e+00
-4.1140310e-03 3.8221598e-10 1.0564685e+00
-2.3306379e-03 7.9053032e-10 1.0727633e+00
-2.2841803e-03 8.2413861e-10 1.0727638e+00
-1.1535103e-03 1.0339002e-09 1.0114975e+00
-1.1261201e-03 1.0560902e-09 1.0114978e+00
-5.1206014e-04 9.7370577e-10 8.1965873e-01
-4.9814470e-04 9.8578666e-10 8.1965885e-01
CONTROL_POINT_UPDATE 3 82  float
5.0436393e-05 4.0271575e-12 8.1965881e-02
5.0584150e-05 3.9769270e-12 8.1965879e-02
1.1372113e-04 1.0651276e-11 1.0114977e-01
1.1424199e-04 1.0604767e-11 1.0114977e-01
2.3010051e-04 2.1848442e-11 1.0727637e-01
2.3138150e-04 2.1753714e-11 1.0727635e-01
4.1373070e-04 3.8037275e-11 1.0564684e-01
4.1592878e-04 3.7840785e-11 1.0564681e-01
6.6760360e-04 6.2745548e-11 1.0280887e-01
6.7023513e-04 6.2415698e-11 1.0280884e-01
9.5506618e-04 1.0001796e-10 1.0089439e-01
9.5708584e-04 9.9649172e-11 1.0089437e-01
1.2090596e-03 1.5064416e-10 1.0021078e-01
1.2094038e-03 1.5048118e-10 1.0021079e-01
1.3439463e-03 2.0434858e-10 1.0005406e-01
1.3413461e-03 2.0461165e-10 1.0005411e-01
1.2742137e-03 2.3223369e-10 9.9896427e-02
1.2665476e-03 2.3275723e-10 9.9896502e-02
9.1644586e-04 1.6729575e-10 1.0006637e-01
8.9963618e-04 1.6563873e-10 1.0006619e-01
2.3070750e-04 -7.7034930e-11 9.9940893e-02
2.0426205e-04 -8.1671092e-11 9.9940385e-02
-6.3487693e-04 -4.5185168e-10 9.7247759e-02
-6.7237589e-04 -4.6259393e-10 9.7246418e-02
-1.5371015e-03 -1.0021248e-09 9.0403210e-02
-1.5820390e-03 -1.0217438e-09 9.0400881e-02
-2.0857107e-03 -1.5784597e-09 7.6445519e-02
-2.1290123e-03 -1.6031276e-09 7.6442768e-02
-2.3121535e-03 -2.4924483e-09 5.9713342e-02
-2.3434258e-03 -2.5193093e-09 5.9711282e-02
-2.7772083e-03 -4.5110146e-09 5.1524712e-02
-2.7905446e-03 -4.5426359e-09 5.1524088e-02
-3.7028643e-03 -7.7912735e-09 5.9433797e-02
-3.7002184e-03 -7.8329468e-09 5.9434376e-02
-4.3714798e-03 -1.1075993e-08 7.6274527e-02
-4.3547665e-03 -1.1137035e-08 7.6275610e-02
-3.9265779e-03 -1.2614622e-08 9.0249157e-02
-3.8934347e-03 -1.2706523e-08 9.0250144e-02
-2.2962103e-03 -1.1531184e-08 9.7130774e-02
-2.2447153e-03 -1.1656065e-08 9.7130999e-02
-3.2516649e-05 -8.1797867e-09 9.9837106e-02
3.2457359e-05 -8.3278203e-09 9.9835716e-02
2.2358878e-03 -3.6038854e-09 9.7132218e-02
2.3048986e-03 -3.7610636e-09 9.7128790e-02
3.8786322e-03 4.5445651e-10 9.0251542e-02
3.9412167e-03 2.8971751e-10 9.0246581e-02
4.3382631e-03 2.5894194e-09 7.6277229e-02
4.3878475e-03 2.4341833e-09 7.6271902e-02
3.6840721e-03 2.2943951e-09 5.9436251e-02
3.7189710e-03 2.1798348e-09 5.9431652e-02
2.7725256e-03 2.6837678e-10 5.1526395e-02
2.7953135e-03 2.0929451e-10 5.1523098e-02
2.3208542e-03 -2.0917661e-09 5.9714041e-02
2.3349005e-03 -2.1107314e-09 5.9712067e-02
2.1025454e-03 -3.6038087e-09 7.6445510e-02
2.1123668e-03 -3.6126891e-09 7.6444559e-02
1.5553478e-03 -3.8941640e-09 9.0402997e-02
1.5639316e-03 -3.9085290e-09 9.0402620e-02
6.4988789e-04 -3.2846421e-09 9.7247670e-02
6.5743760e-04 -3.3026565e-09 9.7247497e-02
-2.1971023e-04 -2.3361108e-09 9.9940946e-02
-2.1523239e-04 -2.3489425e-09 9.9940836e-02
-9.0875572e-04 -1.4693582e-09 1.0006643e-01
-9.0732028e-04 -1.4697631e-09 1.0006633e-01
-1.2708977e-03 -8.3239747e-10 9.9896503e-02
-1.2698634e-03 -8.2281577e-10 9.9896470e-02
-1.3444646e-03 -4.4060280e-10 1.0005404e-01
-1.3408270e-03 -4.2920070e-10 1.0005410e-01
-1.2126309e-03 -2.1918651e-10 1.0021069e-01
-1.2058310e-03 -2.0984689e-10 1.0021083e-01
-9.6044910e-04 -9.7605405e-11 1.0089427e-01
-9.5170138e-04 -9.1102950e-11 1.0089443e-01
-6.7321648e-04 -2.2663041e-11 1.0280877e-01
-6.6462119e-04 -1.7840038e-11 1.0280890e-01
-4.1825587e-04 3.4211683e-11 1.0564677e-01
-4.1140310e-04 3.8221598e-11 1.0564685e-01
-2.3306379e-04 7.9053032e-11 1.0727633e-01
-2.2841803e-04 8.2413861e-11 1.0727638e-01
-1.1535103e-04 1.0339002e-10 1.0114975e-01
-1.1261201e-04 1.0560902e-10 1.0114978e-01
-5.1206014e-05 9.7370577e-11 8.1965873e-02
-4.9814470e-05 9.8578666e-11 8.1965885e-02
CONTROL_POINT_CHANGE 3 82  float
2.3827676e-04 9.5939084e-11 -1.8539986e-06
2.3824844e-04 9.5223395e-11 -1.8546795e-06
2.5105479e-04 1.1854519e-10 -1.9343523e-06
2.5095477e-04 1.1777492e-10 -1.9333102e-06
1.9561959e-04 1.1949773e-10 2.4987297e-06
1.9537318e-04 1.1868827e-10 2.5031939e-06
1.0512948e-04 1.1028044e-10 1.2895427e-05
1.0470616e-04 1.0921747e-10 1.2903303e-05
2.1665403e-05 1.3168500e-10 -1.3196221e-03
2.1158367e-05 1.3064544e-10 -1.3196133e-03
-3.4254336e-05 2.5795126e-10 -6.0563351e-03
-3.4715394e-05 2.5873063e-10 -6.0563278e-03
-6.2635429e-05 5.9122353e-10 -1.7890381e-02
-6.2685505e-05 5.9899040e-10 -1.7890378e-02
-7.9777719e-05 1.1898038e-09 -3.7977872e-02
-7.9828774e-05 1.2095971e-09 -3.7977863e-02
-1.0443947e-04 2.0403831e-09 -6.2042355e-02
-1.0466988e-04 2.0788433e-09 -6.2042335e-02
-1.3766164e-04 2.9853552e-09 -8.2144959e-02
-1.3789412e-04 3.0409767e-09 -8.2144955e-02
-1.5265712e-04 3.7349965e-09 -9.3857928e-02
-1.5195512e-04 3.7934597e-09 -9.3857993e-02
1.8648257e-05 4.0145129e-09 -1.0117357e-01
2.2371800e-05 4.0521054e-09 -1.0117367e-01
3.5864516e-04 3.6383012e-09 -1.0274374e-01
3.6819837e-04 3.6484995e-09 -1.0274366e-01
7.3651595e-04 2.6647924e-09 -9.2861654e-02
7.5302391e-04 2.6510512e-09 -9.2861110e-02
4.8788378e-04 1.1932663e-09 -5.1132494e-02
5.0996582e-04 1.1680587e-09 -5.1131363e-02
-1.1023419e-03 -7.6331736e-10 4.1397233e-02
-1.0779545e-03 -7.9316386e-10 4.1398776e-02
-3.6109381e-03 -3.0254772e-09 1.6969651e-01
-3.5858466e-03 -3.0576367e-09 1.6969805e-01
-5.3964809e-03 -5.0165522e-09 2.8720380e-01
-5.3660079e-03 -5.0518104e-09 2.8720506e-01
-5.1902039e-03 -6.0290114e-09 3.5973503e-01
-5.1435263e-03 -6.0683198e-09 3.5973589e-01
-3.1074123e-03 -5.7265026e-09 3.9041503e-01
-3.0379639e-03 -5.7702393e-09 3.9041520e-01
-4.3870896e-05 -4.2606237e-09 3.9988119e-01
4.3843971e-05 -4.3058402e-09 3.9988017e-01
3.0257812e-03 -2.1307391e-09 3.9041609e-01
3.1195316e-03 -2.1739236e-09 3.9041356e-01
5.1238302e-03 -8.1299819e-11 3.5973685e-01
5.2098207e-03 -1.2559073e-10 3.5973315e-01
5.3467178e-03 1.2858941e-09 2.8720597e-01
5.4156922e-03 1.2438311e-09 2.8720195e-01
3.5741272e-03 1.8546837e-09 1.6969868e-01
3.6225979e-03 1.8267992e-09 1.6969517e-01
1.0746367e-03 1.9757466e-09 4.1399029e-02
1.1056240e-03 1.9679892e-09 4.1396498e-02
-5.0757936e-04 2.0233125e-09 -5.1131344e-02
-4.9028865e-04 2.0301177e-09 -5.1132847e-02
-7.4867998e-04 2.0491992e-09 -9.2861126e-02
-7.4086797e-04 2.0601857e-09 -9.2861853e-02
-3.6473226e-04 1.9417973e-09 -1.0274360e-01
-3.6211493e-04 1.9510849e-09 -1.0274390e-01
-2.0724020e-05 1.6850225e-09 -1.0117356e-01
-2.0299862e-05 1.6887785e-09 -1.0117370e-01
1.5225168e-04 1.3496222e-09 -9.3857884e-02
1.5235490e-04 1.3494589e-09 -9.3858009e-02
1.3809640e-04 9.9111486e-10 -8.2144914e-02
1.3745266e-04 9.8302413e-10 -8.2144970e-02
1.0484581e-04 6.5120477e-10 -6.2042320e-02
1.0425753e-04 6.3790932e-10 -6.2042355e-02
8.0002127e-05 3.3361773e-10 -3.7977856e-02
7.9600260e-05 3.1940250e-10 -3.7977876e-02
6.3097290e-05 4.4250950e-11 -1.7890371e-02
6.2221535e-05 3.3230606e-11 -1.7890386e-02
3.5033570e-05 -2.0355963e-10 -6.0563220e-03
3.3935375e-05 -2.1085706e-10 -6.0563357e-03
-2.0413482e-05 -3.8874101e-10 -1.3196042e-03
-2.2410471e-05 -3.9085750e-10 -1.3196179e-03
-1.0356846e-04 -4.9514709e-10 1.2912884e-05
-1.0626717e-04 -4.9244512e-10 1.2904875e-05
-1.9412098e-04 -5.1888363e-10 2.5097020e-06
-1.9687169e-04 -5.1274021e-10 2.5112362e-06
-2.4993382e-04 -4.6416752e-10 -1.9315554e-06
-2.5207559e-04 -4.5679686e-10 -1.9222723e-06
-2.3762805e-04 -3.4850256e-10 -1.8562517e-06
-2.3889698e-04 -3.4213732e-10 -1.8450403e-06
CELL_DATA 80
FIELD FieldData 0
