# vtk DataFile Version 4.0
vtk output
ASCII
DATASET UNSTRUCTURED_GRID
POINTS 18 double
0.00000000e+00 1.00000000e+00 0.00000000e+00 0.00000000e+00 5.00000000e-01 0.00000000e+00 5.00000000e-01 1.00000000e+00 0.00000000e+00 5.00000000e-01 5.00000000e-01 0.00000000e+00 0.00000000e+00 0.00000000e+00 0.00000000e+00 1.00000000e+00 1.00000000e+00 0.00000000e+00 1.00000000e+00 5.00000000e-01 0.00000000e+00 5.00000000e-01 0.00000000e+00 0.00000000e+00 1.00000000e+00 0.00000000e+00 0.00000000e+00 1.50000000e+00 1.00000000e+00 0.00000000e+00 1.50000000e+00 5.00000000e-01 0.00000000e+00 1.50000000e+00 0.00000000e+00 0.00000000e+00 2.00000000e+00 1.00000000e+00 0.00000000e+00 2.00000000e+00 5.00000000e-01 0.00000000e+00 2.00000000e+00 0.00000000e+00 0.00000000e+00 1.00000000e+00 1.00000000e+00 0.00000000e+00 1.00000000e+00 5.00000000e-01 0.00000000e+00 1.00000000e+00 0.00000000e+00 0.00000000e+00 
CELLS 12 52
4 13 10 11 14
4 12 9 10 13
4 10 16 17 11
4 9 15 16 10
4 1 3 2 0
4 4 7 3 1
4 3 6 5 2
4 7 8 6 3
2 0 1
2 1 4
2 12 13
2 13 14

CELL_TYPES 12
9
9
9
9
9
9
9
9
3
3
3
3
POINT_DATA 18
VECTORS DISPLACEMENT double
0.00000000e+00 1.00000000e+00 0.00000000e+00 
0.00000000e+00 5.00000000e-01 0.00000000e+00 
5.00000000e-01 1.00000000e+00 0.00000000e+00 
5.00000000e-01 5.00000000e-01 0.00000000e+00 
0.00000000e+00 0.00000000e+00 0.00000000e+00 
1.00000000e+00 1.00000000e+00 0.00000000e+00 
1.00000000e+00 5.00000000e-01 0.00000000e+00 
5.00000000e-01 0.00000000e+00 0.00000000e+00 
1.00000000e+00 0.00000000e+00 0.00000000e+00 
1.50000000e+00 1.00000000e+00 0.00000000e+00 
1.50000000e+00 5.00000000e-01 0.00000000e+00 
1.50000000e+00 0.00000000e+00 0.00000000e+00 
2.00000000e+00 1.00000000e+00 0.00000000e+00 
2.00000000e+00 5.00000000e-01 0.00000000e+00 
2.00000000e+00 0.00000000e+00 0.00000000e+00 
1.00000000e+00 1.00000000e+00 0.00000000e+00 
1.00000000e+00 5.00000000e-01 0.00000000e+00 
1.00000000e+00 0.00000000e+00 0.00000000e+00 
VECTORS VELOCITY double
0.00000000e+00 2.00000000e+00 0.00000000e+00 
0.00000000e+00 1.00000000e+00 0.00000000e+00 
1.00000000e+00 2.00000000e+00 0.00000000e+00 
1.00000000e+00 1.00000000e+00 0.00000000e+00 
0.00000000e+00 0.00000000e+00 0.00000000e+00 
2.00000000e+00 2.00000000e+00 0.00000000e+00 
2.00000000e+00 1.00000000e+00 0.00000000e+00 
1.00000000e+00 0.00000000e+00 0.00000000e+00 
2.00000000e+00 0.00000000e+00 0.00000000e+00 
3.00000000e+00 2.00000000e+00 0.00000000e+00 
3.00000000e+00 1.00000000e+00 0.00000000e+00 
3.00000000e+00 0.00000000e+00 0.00000000e+00 
4.00000000e+00 2.00000000e+00 0.00000000e+00 
4.00000000e+00 1.00000000e+00 0.00000000e+00 
4.00000000e+00 0.00000000e+00 0.00000000e+00 
2.00000000e+00 2.00000000e+00 0.00000000e+00 
2.00000000e+00 1.00000000e+00 0.00000000e+00 
2.00000000e+00 0.00000000e+00 0.00000000e+00 
CELL_DATA 12
VECTORS DETERMINANT double
0.00000000e+00 0.00000000e+00 0.00000000e+00 
0.00000000e+00 0.00000000e+00 0.00000000e+00 
0.00000000e+00 0.00000000e+00 0.00000000e+00 
0.00000000e+00 0.00000000e+00 0.00000000e+00 
0.00000000e+00 0.00000000e+00 0.00000000e+00 
0.00000000e+00 0.00000000e+00 0.00000000e+00 
0.00000000e+00 0.00000000e+00 0.00000000e+00 
0.00000000e+00 0.00000000e+00 0.00000000e+00 
0.00000000e+00 0.00000000e+00 0.00000000e+00 
0.00000000e+00 0.00000000e+00 0.00000000e+00 
0.00000000e+00 0.00000000e+00 0.00000000e+00 
0.00000000e+00 0.00000000e+00 0.00000000e+00 
