# vtk DataFile Version 4.0
vtk output
ASCII
DATASET UNSTRUCTURED_GRID
POINTS 3 double
2.00000000e+00 1.00000000e+00 0.00000000e+00 2.00000000e+00 5.00000000e-01 0.00000000e+00 2.00000000e+00 0.00000000e+00 0.00000000e+00 
CELLS 0 0

CELL_TYPES 0
POINT_DATA 3
VECTORS DISPLACEMENT double
2.00000000e+00 1.00000000e+00 0.00000000e+00 
2.00000000e+00 5.00000000e-01 0.00000000e+00 
2.00000000e+00 0.00000000e+00 0.00000000e+00 
VECTORS VELOCITY double
4.00000000e+00 2.00000000e+00 0.00000000e+00 
4.00000000e+00 1.00000000e+00 0.00000000e+00 
4.00000000e+00 0.00000000e+00 0.00000000e+00 
