# vtk DataFile Version 4.0
vtk output
ASCII
DATASET UNSTRUCTURED_GRID
POINTS 4 float
-1.25000000e-01 -1.25000000e-01 0.00000000e+00 
-1.25000000e-01 1.25000000e-01 0.00000000e+00 
1.25000000e-01 -1.25000000e-01 0.00000000e+00 
1.25000000e-01 1.25000000e-01 0.00000000e+00 

CELLS 4 8
1 0
1 1
1 2
1 3

CELL_TYPES 4
1
1
1
1
POINT_DATA 4
FIELD FieldData 3
MP_DISPLACEMENT 3 4  float
0.00000000e+00 0.00000000e+00 0.00000000e+00 
0.00000000e+00 0.00000000e+00 0.00000000e+00 
0.00000000e+00 0.00000000e+00 0.00000000e+00 
0.00000000e+00 0.00000000e+00 0.00000000e+00 
MP_DENSITY 1 4  float
0.00000000e+00
0.00000000e+00
0.00000000e+00
0.00000000e+00
BOUNDARY 1 4  float
-1.00000000e+00
-1.00000000e+00
-1.00000000e+00
-1.00000000e+00
