# vtk DataFile Version 4.0
vtk output
ASCII
DATASET UNSTRUCTURED_GRID
POINTS 4 float
-6.56249980e-03 2.87500000e+00 0.00000000e+00 
-6.56249980e-03 3.12500000e+00 0.00000000e+00 
6.56249980e-03 2.87500000e+00 0.00000000e+00 
6.56249980e-03 3.12500000e+00 0.00000000e+00 

CELLS 4 8
1 0
1 1
1 2
1 3

CELL_TYPES 4
1
1
1
1
POINT_DATA 4
FIELD FieldData 3
MP_DISPLACEMENT 3 4  float
5.00000007e-02 2.00000000e+00 3.00000012e-01 
5.00000007e-02 2.00000000e+00 3.00000012e-01 
5.00000007e-02 2.00000000e+00 3.00000012e-01 
5.00000007e-02 2.00000000e+00 3.00000012e-01 
MP_DENSITY 1 4  float
4.00000006e-01
4.00000006e-01
4.00000006e-01
4.00000006e-01
BOUNDARY 1 4  float
-1.00000000e+00
-1.00000000e+00
-1.00000000e+00
-1.00000000e+00
