# vtk DataFile Version 4.0
vtk output
ASCII
DATASET UNSTRUCTURED_GRID
POINTS 971 float
 3.4924667e-01 2.1501435e-01 0.0000000e+00
 3.4791054e-01 2.2494940e-01 0.0000000e+00
 3.4991623e-01 2.0501225e-01 0.0000000e+00
 3.4591380e-01 2.3477302e-01 0.0000000e+00
 3.4991623e-01 1.9498775e-01 0.0000000e+00
 3.4326537e-01 2.4444134e-01 0.0000000e+00
 3.4924667e-01 1.8498565e-01 0.0000000e+00
 3.3997709e-01 2.5391117e-01 0.0000000e+00
 3.4791054e-01 1.7505060e-01 0.0000000e+00
 3.4238278e-01 2.1087043e-01 0.0000000e+00
 3.4133876e-01 2.2035628e-01 0.0000000e+00
 3.4279089e-01 2.0133604e-01 0.0000000e+00
 3.3966348e-01 2.2975121e-01 0.0000000e+00
 3.3606364e-01 2.6314021e-01 0.0000000e+00
 3.4591380e-01 1.6522698e-01 0.0000000e+00
 3.4256126e-01 1.9179568e-01 0.0000000e+00
 3.3736444e-01 2.3901326e-01 0.0000000e+00
 3.4169491e-01 1.8229195e-01 0.0000000e+00
 3.3445189e-01 2.4810108e-01 0.0000000e+00
 3.3154249e-01 2.7208726e-01 0.0000000e+00
 3.4326537e-01 1.5555866e-01 0.0000000e+00
 3.4019572e-01 1.7286732e-01 0.0000000e+00
 3.3504127e-01 2.1432007e-01 0.0000000e+00
 3.3093884e-01 2.5697406e-01 0.0000000e+00
 3.3393451e-01 2.0573289e-01 0.0000000e+00
 3.3197535e-01 2.2353346e-01 0.0000000e+00
 3.2643384e-01 2.8071235e-01 0.0000000e+00
 3.3401833e-01 1.9677424e-01 0.0000000e+00
 3.3807039e-01 1.6356387e-01 0.0000000e+00
 3.3010878e-01 2.3229588e-01 0.0000000e+00
 3.3997709e-01 1.4608883e-01 0.0000000e+00
 3.2684099e-01 2.6559258e-01 0.0000000e+00
 3.3350359e-01 1.8783001e-01 0.0000000e+00
 3.2766110e-01 2.4091407e-01 0.0000000e+00
 3.3402644e-01 1.7813399e-01 0.0000000e+00
 3.3532839e-01 1.5442315e-01 0.0000000e+00
 3.2464326e-01 2.4934953e-01 0.0000000e+00
 3.2217664e-01 2.7391814e-01 0.0000000e+00
 3.2076051e-01 2.8897696e-01 0.0000000e+00
 3.2240868e-01 2.5879902e-01 0.0000000e+00
 3.3606364e-01 1.3685979e-01 0.0000000e+00
 3.2624717e-01 2.1318032e-01 0.0000000e+00
 3.3069030e-01 1.7014431e-01 0.0000000e+00
 3.2360563e-01 2.2478086e-01 0.0000000e+00
 3.2531654e-01 2.0117254e-01 0.0000000e+00
 3.3198199e-01 1.4548599e-01 0.0000000e+00
 3.2576081e-01 1.9124434e-01 0.0000000e+00
 3.1696662e-01 2.8191358e-01 0.0000000e+00
 3.2055416e-01 2.3423893e-01 0.0000000e+00
 3.2840432e-01 1.6148183e-01 0.0000000e+00
 3.1695348e-01 2.6552253e-01 0.0000000e+00
 3.1454783e-01 2.9684418e-01 0.0000000e+00
 3.2524369e-01 1.7935809e-01 0.0000000e+00
 3.1817867e-01 2.4388899e-01 0.0000000e+00
 3.3154249e-01 1.2791274e-01 0.0000000e+00
 3.2736372e-01 1.5288638e-01 0.0000000e+00
 3.2804613e-01 1.3679230e-01 0.0000000e+00
 3.1438512e-01 2.5501566e-01 0.0000000e+00
 3.1123419e-01 2.8954316e-01 0.0000000e+00
 3.1231589e-01 2.7318784e-01 0.0000000e+00
 3.1706848e-01 2.1635733e-01 0.0000000e+00
 3.2117372e-01 1.6802282e-01 0.0000000e+00
 3.1383798e-01 2.2685080e-01 0.0000000e+00
 3.0782355e-01 3.0427886e-01 0.0000000e+00
 3.1688708e-01 1.9582130e-01 0.0000000e+00
 3.0889198e-01 2.8114029e-01 0.0000000e+00
 3.2643384e-01 1.1928765e-01 0.0000000e+00
 3.1723047e-01 1.8484719e-01 0.0000000e+00
 3.2212466e-01 1.4471089e-01 0.0000000e+00
 3.1438563e-01 2.0524277e-01 0.0000000e+00
 3.1095720e-01 2.3699392e-01 0.0000000e+00
 3.2353837e-01 1.2838092e-01 0.0000000e+00
 3.1906623e-01 1.5602374e-01 0.0000000e+00
 3.0722501e-01 2.6487225e-01 0.0000000e+00
 3.0500497e-01 2.9677282e-01 0.0000000e+00
 3.0858741e-01 2.4670510e-01 0.0000000e+00
 3.1432047e-01 1.7528399e-01 0.0000000e+00
 3.1815903e-01 1.3667733e-01 0.0000000e+00
 3.0061771e-01 3.1124782e-01 0.0000000e+00
 3.0827160e-01 2.1160385e-01 0.0000000e+00
 3.0155876e-01 2.8750506e-01 0.0000000e+00
 3.0190635e-01 2.7567803e-01 0.0000000e+00
 3.2076051e-01 1.1102304e-01 0.0000000e+00
 3.0610286e-01 2.2036743e-01 0.0000000e+00
 3.0269936e-01 2.5597224e-01 0.0000000e+00
 3.1847887e-01 1.2028940e-01 0.0000000e+00
 3.1162999e-01 1.6508874e-01 0.0000000e+00
 2.9830677e-01 3.0357028e-01 0.0000000e+00
 3.1370536e-01 1.4556166e-01 0.0000000e+00
 3.0373080e-01 2.3008202e-01 0.0000000e+00
 3.0749030e-01 1.8258670e-01 0.0000000e+00
 3.0135893e-01 2.3979641e-01 0.0000000e+00
 3.1366568e-01 1.2892658e-01 0.0000000e+00
 3.0500965e-01 1.9453096e-01 0.0000000e+00
 2.9548728e-01 2.9409303e-01 0.0000000e+00
 3.0906187e-01 1.5441383e-01 0.0000000e+00
 2.9875873e-01 2.4747756e-01 0.0000000e+00
 2.9724118e-01 2.6499388e-01 0.0000000e+00
 3.0189888e-01 2.0403310e-01 0.0000000e+00
 2.9296248e-01 3.1771991e-01 0.0000000e+00
 3.0458044e-01 1.7301968e-01 0.0000000e+00
 3.1454783e-01 1.0315582e-01 0.0000000e+00
 3.1289021e-01 1.1255388e-01 0.0000000e+00
 2.9372174e-01 2.8431298e-01 0.0000000e+00
 3.0842009e-01 1.3714546e-01 0.0000000e+00
 2.9896720e-01 2.1347277e-01 0.0000000e+00
 2.9116951e-01 3.0990516e-01 0.0000000e+00
 3.0440671e-01 1.6326395e-01 0.0000000e+00
 2.9238993e-01 2.7373392e-01 0.0000000e+00
 2.9661202e-01 2.2320365e-01 0.0000000e+00
 3.0866467e-01 1.2149327e-01 0.0000000e+00
 2.9424472e-01 2.3293087e-01 0.0000000e+00
 2.8898932e-01 3.0026075e-01 0.0000000e+00
 3.0372871e-01 1.4595923e-01 0.0000000e+00
 2.9775440e-01 1.8849019e-01 0.0000000e+00
 2.9183629e-01 2.4264058e-01 0.0000000e+00
 2.9541658e-01 1.9659059e-01 0.0000000e+00
 2.8489206e-01 3.2366623e-01 0.0000000e+00
 3.0374277e-01 1.2837681e-01 0.0000000e+00
 2.8938807e-01 2.5231435e-01 0.0000000e+00
 2.8627626e-01 2.9089564e-01 0.0000000e+00
 3.0679736e-01 1.0520893e-01 0.0000000e+00
 2.9850768e-01 1.5828094e-01 0.0000000e+00
 3.0782355e-01 9.5721136e-02 0.0000000e+00
 2.8724354e-01 2.6516098e-01 0.0000000e+00
 2.9244675e-01 2.0612875e-01 0.0000000e+00
 2.8362506e-01 3.1574918e-01 0.0000000e+00
 3.0417328e-01 1.1288434e-01 0.0000000e+00
 2.8358606e-01 3.0702607e-01 0.0000000e+00
 2.9462880e-01 1.7929501e-01 0.0000000e+00
 2.9548647e-01 1.6815284e-01 0.0000000e+00
 2.8426276e-01 2.8111620e-01 0.0000000e+00
 2.8968408e-01 2.1634777e-01 0.0000000e+00
 2.9844029e-01 1.3683704e-01 0.0000000e+00
 2.8732343e-01 2.2612202e-01 0.0000000e+00
 2.8204049e-01 2.7365197e-01 0.0000000e+00
 2.8490165e-01 2.3586888e-01 0.0000000e+00
 2.9488844e-01 1.4556978e-01 0.0000000e+00
 2.8903485e-01 1.8912694e-01 0.0000000e+00
 2.8238782e-01 2.4554445e-01 0.0000000e+00
 2.7829175e-01 2.9991232e-01 0.0000000e+00
 2.9724041e-01 1.1841340e-01 0.0000000e+00
 3.0022752e-01 9.8287330e-02 0.0000000e+00
 2.7644250e-01 3.2906024e-01 0.0000000e+00
 2.8615985e-01 1.9868985e-01 0.0000000e+00
 2.9111188e-01 1.5319869e-01 0.0000000e+00
 2.7989586e-01 2.5520006e-01 0.0000000e+00
 2.7570712e-01 3.2107624e-01 0.0000000e+00
 3.0061771e-01 8.8752184e-02 0.0000000e+00
 2.9723119e-01 1.0771016e-01 0.0000000e+00
 2.7844169e-01 2.6523917e-01 0.0000000e+00
 2.7661503e-01 2.8837526e-01 0.0000000e+00
 2.8323281e-01 2.0831106e-01 0.0000000e+00
 2.7483186e-01 3.1122729e-01 0.0000000e+00
 2.9314316e-01 1.2721990e-01 0.0000000e+00
 2.8819213e-01 1.6264581e-01 0.0000000e+00
 2.9099157e-01 1.3698544e-01 0.0000000e+00
 2.8059032e-01 2.1932099e-01 0.0000000e+00
 2.8541123e-01 1.7209093e-01 0.0000000e+00
 2.7811610e-01 2.2913690e-01 0.0000000e+00
 2.8264393e-01 1.8159776e-01 0.0000000e+00
 2.7559804e-01 2.3888492e-01 0.0000000e+00
 2.8000107e-01 1.9117393e-01 0.0000000e+00
 2.7205846e-01 2.7326312e-01 0.0000000e+00
 2.9321004e-01 9.1820008e-02 0.0000000e+00
 2.8495639e-01 1.4388437e-01 0.0000000e+00
 2.7299279e-01 2.4852002e-01 0.0000000e+00
 2.6962708e-01 2.9552309e-01 0.0000000e+00
 2.6765152e-01 3.3387783e-01 0.0000000e+00
 2.9084978e-01 1.0142193e-01 0.0000000e+00
 2.6745106e-01 3.2586254e-01 0.0000000e+00
 2.7143064e-01 2.5934873e-01 0.0000000e+00
 2.6811663e-01 3.0607812e-01 0.0000000e+00
 2.9296248e-01 8.2280092e-02 0.0000000e+00
 2.6723559e-01 3.1597712e-01 0.0000000e+00
 2.8158889e-01 1.5514164e-01 0.0000000e+00
 2.8796196e-01 1.1073464e-01 0.0000000e+00
 2.7535576e-01 2.0126239e-01 0.0000000e+00
 2.8576582e-01 1.2047469e-01 0.0000000e+00
 2.7402023e-01 2.1249279e-01 0.0000000e+00
 2.7264694e-01 2.2226960e-01 0.0000000e+00
 2.8361072e-01 1.3023872e-01 0.0000000e+00
 2.7885565e-01 1.6454687e-01 0.0000000e+00
 2.7625689e-01 1.7397915e-01 0.0000000e+00
 2.6889347e-01 2.3223198e-01 0.0000000e+00
 2.6430673e-01 2.8293669e-01 0.0000000e+00
 2.7285231e-01 1.8365274e-01 0.0000000e+00
 2.7781344e-01 1.3827261e-01 0.0000000e+00
 2.6592741e-01 2.4101224e-01 0.0000000e+00
 2.8577626e-01 8.5835845e-02 0.0000000e+00
 2.8406261e-01 9.5573977e-02 0.0000000e+00
 2.5933903e-01 3.2020897e-01 0.0000000e+00
 2.5889374e-01 3.3008670e-01 0.0000000e+00
 2.5855839e-01 3.3809748e-01 0.0000000e+00
 2.7496255e-01 1.4762401e-01 0.0000000e+00
 2.6359991e-01 2.5159862e-01 0.0000000e+00
 2.8113418e-01 1.0351329e-01 0.0000000e+00
 2.5983831e-01 3.0049591e-01 0.0000000e+00
 2.5919659e-01 3.1045983e-01 0.0000000e+00
 2.8489206e-01 7.6333766e-02 0.0000000e+00
 2.6159515e-01 2.6227136e-01 0.0000000e+00
 2.7228792e-01 1.5693930e-01 0.0000000e+00
 2.7825526e-01 1.1307380e-01 0.0000000e+00
 2.5886019e-01 2.7249079e-01 0.0000000e+00
 2.6390447e-01 2.0631955e-01 0.0000000e+00
 2.6792303e-01 1.6691085e-01 0.0000000e+00
 2.6161456e-01 2.1816534e-01 0.0000000e+00
 2.6423254e-01 1.9201193e-01 0.0000000e+00
 2.5590761e-01 2.8026802e-01 0.0000000e+00
 2.7745636e-01 8.8457534e-02 0.0000000e+00
 2.5775642e-01 2.4382124e-01 0.0000000e+00
 2.7081438e-01 1.2553348e-01 0.0000000e+00
 2.7795939e-01 8.0361561e-02 0.0000000e+00
 2.5347462e-01 2.8986751e-01 0.0000000e+00
 2.6822830e-01 1.3925771e-01 0.0000000e+00
 2.5117744e-01 3.2390394e-01 0.0000000e+00
 2.5007339e-01 3.3372987e-01 0.0000000e+00
 2.5662206e-01 2.3275794e-01 0.0000000e+00
 2.7086949e-01 1.1554405e-01 0.0000000e+00
 2.5060848e-01 3.1546092e-01 0.0000000e+00
 2.6555394e-01 1.4941945e-01 0.0000000e+00
 2.4920373e-01 3.4170036e-01 0.0000000e+00
 2.6112713e-01 1.7950091e-01 0.0000000e+00
 2.5010961e-01 3.0285777e-01 0.0000000e+00
 2.6306712e-01 1.5860622e-01 0.0000000e+00
 2.7644250e-01 7.0939763e-02 0.0000000e+00
 2.7223057e-01 9.5621776e-02 0.0000000e+00
 2.5788111e-01 2.0143291e-01 0.0000000e+00
 2.7060554e-01 1.0519784e-01 0.0000000e+00
 2.5649717e-01 2.1287659e-01 0.0000000e+00
[...]
POINT_DATA 971
VECTORS VELOCITY float
1.4528216e-01 -3.3929791e-03 0.0000000e+00
1.4600125e-01 -5.0928192e-03 0.0000000e+00
1.4474634e-01 -1.6463702e-03 0.0000000e+00
1.4664828e-01 -7.0272403e-03 0.0000000e+00
1.4476778e-01 6.0252975e-05 0.0000000e+00
1.4849298e-01 -8.9151386e-03 0.0000000e+00
1.4498324e-01 1.7509157e-03 0.0000000e+00
1.4977279e-01 -9.8923363e-03 0.0000000e+00
1.4538920e-01 3.4641760e-03 0.0000000e+00
1.7286389e-01 -9.3410302e-05 0.0000000e+00
1.7186946e-01 -5.7465741e-04 0.0000000e+00
1.7130686e-01 -8.4746061e-04 0.0000000e+00
1.7105040e-01 -1.3148073e-03 0.0000000e+00
1.5094413e-01 -1.1261306e-02 0.0000000e+00
1.4595769e-01 5.4641663e-03 0.0000000e+00
1.7036294e-01 -2.0773850e-03 0.0000000e+00
1.7112494e-01 -7.1425651e-04 0.0000000e+00
1.7123316e-01 -1.2716874e-03 0.0000000e+00
1.7093766e-01 -5.6111067e-04 0.0000000e+00
1.5242093e-01 -1.2570275e-02 0.0000000e+00
1.4770863e-01 7.4539752e-03 0.0000000e+00
1.7207657e-01 -1.2230266e-03 0.0000000e+00
1.4139664e-01 -3.1465548e-03 0.0000000e+00
1.7292816e-01 -1.7751938e-03 0.0000000e+00
1.3804028e-01 -2.4940109e-03 0.0000000e+00
1.3953831e-01 -6.2353666e-03 0.0000000e+00
1.5444071e-01 -1.3885007e-02 0.0000000e+00
1.3768796e-01 -9.9151039e-04 0.0000000e+00
1.7051793e-01 -1.6136466e-03 0.0000000e+00
1.3991750e-01 -8.8737921e-03 0.0000000e+00
1.4881774e-01 8.4672240e-03 0.0000000e+00
1.7460769e-01 -1.2643263e-03 0.0000000e+00
1.3879952e-01 1.7886568e-03 0.0000000e+00
1.4107973e-01 -1.0816220e-02 0.0000000e+00
1.4208921e-01 4.3513954e-03 0.0000000e+00
1.7147758e-01 -1.0897089e-03 0.0000000e+00
1.4441087e-01 -1.3916598e-02 0.0000000e+00
1.7350748e-01 -5.4889999e-05 0.0000000e+00
1.5733256e-01 -1.5032896e-02 0.0000000e+00
1.4957425e-01 -1.5061965e-02 0.0000000e+00
1.4969994e-01 1.0034516e-02 0.0000000e+00
1.2568012e-01 -5.9528787e-03 0.0000000e+00
1.3823464e-01 5.8135642e-03 0.0000000e+00
1.2803122e-01 -1.0318310e-02 0.0000000e+00
1.2290842e-01 -8.5293437e-04 0.0000000e+00
1.7083127e-01 -8.0796695e-05 0.0000000e+00
1.2611581e-01 2.3480586e-03 0.0000000e+00
1.7566030e-01 -7.9905545e-04 0.0000000e+00
1.2909110e-01 -1.3648969e-02 0.0000000e+00
1.3909169e-01 8.4971990e-03 0.0000000e+00
1.4807210e-01 -1.6143596e-02 0.0000000e+00
1.6090467e-01 -1.5278926e-02 0.0000000e+00
1.2763682e-01 5.5885970e-03 0.0000000e+00
1.3272462e-01 -1.7970067e-02 0.0000000e+00
1.5108640e-01 1.1725913e-02 0.0000000e+00
1.4330217e-01 9.6618654e-03 0.0000000e+00
1.7018238e-01 6.7988030e-04 0.0000000e+00
1.3758166e-01 -2.2200843e-02 0.0000000e+00
1.7653344e-01 -1.6276773e-03 0.0000000e+00
1.5071274e-01 -1.7151129e-02 0.0000000e+00
1.1867032e-01 -1.1160296e-02 0.0000000e+00
1.2563861e-01 9.9147640e-03 0.0000000e+00
1.2032743e-01 -1.4931050e-02 0.0000000e+00
1.6320007e-01 -1.3687689e-02 0.0000000e+00
1.1438135e-01 2.5047896e-03 0.0000000e+00
1.5592912e-01 -1.7595666e-02 0.0000000e+00
1.5325061e-01 1.3430721e-02 0.0000000e+00
1.1661212e-01 6.5639576e-03 0.0000000e+00
1.4278396e-01 1.3139530e-02 0.0000000e+00
1.1450309e-01 -4.6215449e-03 0.0000000e+00
1.2331301e-01 -1.9595920e-02 0.0000000e+00
1.7055544e-01 4.0867645e-04 0.0000000e+00
1.3078366e-01 1.6288260e-02 0.0000000e+00
1.3984833e-01 -2.3686894e-02 0.0000000e+00
1.7608362e-01 -7.9841956e-04 0.0000000e+00
1.2855739e-01 -2.5857975e-02 0.0000000e+00
1.1965394e-01 9.2216922e-03 0.0000000e+00
1.4455293e-01 1.5267399e-02 0.0000000e+00
1.6432913e-01 -1.3590378e-02 0.0000000e+00
1.1438706e-01 -1.0261998e-02 0.0000000e+00
1.5856685e-01 -1.9278137e-02 0.0000000e+00
1.4812583e-01 -2.6924677e-02 0.0000000e+00
1.5626405e-01 1.4747900e-02 0.0000000e+00
1.1470331e-01 -1.4650637e-02 0.0000000e+00
1.3334387e-01 -2.8936200e-02 0.0000000e+00
1.7141234e-01 8.9383775e-04 0.0000000e+00
1.2537423e-01 1.5980793e-02 0.0000000e+00
1.7549642e-01 8.9778115e-04 0.0000000e+00
1.3485078e-01 1.9255069e-02 0.0000000e+00
1.1730099e-01 -2.0318361e-02 0.0000000e+00
1.1430554e-01 1.1510171e-02 0.0000000e+00
1.2402126e-01 -2.7330738e-02 0.0000000e+00
1.4808654e-01 1.7372703e-02 0.0000000e+00
1.1130342e-01 3.6566638e-03 0.0000000e+00
1.6078899e-01 -1.7543850e-02 0.0000000e+00
1.2986745e-01 2.1428047e-02 0.0000000e+00
1.2974905e-01 -3.1877199e-02 0.0000000e+00
1.3924070e-01 -3.1445137e-02 0.0000000e+00
1.1045464e-01 -5.7767685e-03 0.0000000e+00
1.6654644e-01 -1.3875315e-02 0.0000000e+00
1.2007368e-01 1.6884453e-02 0.0000000e+00
1.5990139e-01 1.5142123e-02 0.0000000e+00
1.7479669e-01 2.0376352e-03 0.0000000e+00
1.5596291e-01 -2.7600778e-02 0.0000000e+00
1.3855276e-01 2.3174632e-02 0.0000000e+00
1.0773681e-01 -1.2555521e-02 0.0000000e+00
1.7752206e-01 1.0134050e-03 0.0000000e+00
1.2728329e-01 2.1715603e-02 0.0000000e+00
1.4892261e-01 -3.6574228e-02 0.0000000e+00
1.0977570e-01 -2.0403955e-02 0.0000000e+00
1.5397290e-01 1.9182728e-02 0.0000000e+00
1.1638080e-01 -2.9694538e-02 0.0000000e+00
1.6321491e-01 -1.6211595e-02 0.0000000e+00
1.3531902e-01 2.4279083e-02 0.0000000e+00
1.0988792e-01 1.0505230e-02 0.0000000e+00
1.2429130e-01 -3.6276152e-02 0.0000000e+00
1.0563467e-01 2.4212626e-03 0.0000000e+00
1.6928196e-01 -1.2981425e-02 0.0000000e+00
1.4730800e-01 2.6814839e-02 0.0000000e+00
1.3260479e-01 -3.6655575e-02 0.0000000e+00
1.5782218e-01 -2.3721489e-02 0.0000000e+00
1.7627183e-01 1.1535796e-03 0.0000000e+00
1.2876353e-01 2.5799708e-02 0.0000000e+00
1.6228381e-01 1.3952205e-02 0.0000000e+00
1.4535483e-01 -3.9313725e-02 0.0000000e+00
1.0066095e-01 -6.8326911e-03 0.0000000e+00
1.7760814e-01 5.2432950e-04 0.0000000e+00
1.5960097e-01 1.7611547e-02 0.0000000e+00
1.6647284e-01 -1.5024691e-02 0.0000000e+00
1.0993809e-01 1.8783186e-02 0.0000000e+00
1.1739872e-01 2.6134104e-02 0.0000000e+00
1.5584427e-01 -3.4978216e-02 0.0000000e+00
1.0001034e-01 -1.7928681e-02 0.0000000e+00
1.4474827e-01 3.0131784e-02 0.0000000e+00
1.0583341e-01 -3.0709624e-02 0.0000000e+00
1.5409956e-01 -4.1691619e-02 0.0000000e+00
1.1479264e-01 -4.0943484e-02 0.0000000e+00
1.4024996e-01 3.0811934e-02 0.0000000e+00
9.9029027e-02 1.2054588e-02 0.0000000e+00
1.2570313e-01 -4.6234353e-02 0.0000000e+00
1.6195567e-01 -2.2220537e-02 0.0000000e+00
1.5211920e-01 2.4955409e-02 0.0000000e+00
1.7398060e-01 9.7201335e-05 0.0000000e+00
1.7125926e-01 -1.2366501e-02 0.0000000e+00
9.0264926e-02 2.5215517e-03 0.0000000e+00
1.3058851e-01 3.3262669e-02 0.0000000e+00
1.3943875e-01 -4.7861992e-02 0.0000000e+00
1.7651404e-01 2.9619537e-04 0.0000000e+00
1.6390394e-01 1.3886953e-02 0.0000000e+00
1.5696965e-01 1.8080450e-02 0.0000000e+00
1.5067052e-01 -4.7076390e-02 0.0000000e+00
1.5469770e-01 -2.9797368e-02 0.0000000e+00
8.6698010e-02 -1.1785064e-02 0.0000000e+00
1.6633853e-01 -1.5974565e-02 0.0000000e+00
1.4820050e-01 3.1092880e-02 0.0000000e+00
1.1801556e-01 3.5813246e-02 0.0000000e+00
1.4464476e-01 3.4357137e-02 0.0000000e+00
9.1894677e-02 -2.9597258e-02 0.0000000e+00
1.0642409e-01 3.2284586e-02 0.0000000e+00
1.0231279e-01 -4.4218104e-02 0.0000000e+00
9.2901514e-02 2.4219899e-02 0.0000000e+00
1.1439950e-01 -5.4819198e-02 0.0000000e+00
7.5543630e-02 1.3660733e-02 0.0000000e+00
1.4863487e-01 -4.3010267e-02 0.0000000e+00
1.7413889e-01 4.7955926e-04 0.0000000e+00
1.3512875e-01 4.0126276e-02 0.0000000e+00
1.2995689e-01 -6.0379243e-02 0.0000000e+00
1.5676767e-01 -3.1293031e-02 0.0000000e+00
1.7360328e-01 -1.1656225e-02 0.0000000e+00
1.5943045e-01 1.8041923e-02 0.0000000e+00
1.7652696e-01 -5.9079334e-05 0.0000000e+00
1.4327652e-01 -5.6272966e-02 0.0000000e+00
1.6304089e-01 -2.3096384e-02 0.0000000e+00
1.6664866e-01 1.4595578e-02 0.0000000e+00
1.6775968e-01 -1.5641410e-02 0.0000000e+00
1.2231436e-01 4.3796301e-02 0.0000000e+00
1.5281711e-01 2.5257528e-02 0.0000000e+00
6.5077082e-02 -3.3114546e-03 0.0000000e+00
1.4829703e-01 2.9458713e-02 0.0000000e+00
7.0300735e-02 -2.7510321e-02 0.0000000e+00
8.1985906e-02 -4.5482558e-02 0.0000000e+00
1.4498469e-01 3.5226510e-02 0.0000000e+00
1.0828321e-01 4.5259726e-02 0.0000000e+00
8.9285403e-02 4.3460239e-02 0.0000000e+00
9.5412087e-02 -6.2894416e-02 0.0000000e+00
1.5454025e-01 -3.7947294e-02 0.0000000e+00
7.1811215e-02 3.4628822e-02 0.0000000e+00
1.3997273e-01 4.4336052e-02 0.0000000e+00
1.1524961e-01 -7.5205281e-02 0.0000000e+00
1.7784673e-01 1.2298512e-03 0.0000000e+00
1.6568898e-01 1.8562730e-02 0.0000000e+00
1.7187771e-01 -1.5998956e-02 0.0000000e+00
1.7830217e-01 -8.9167179e-04 0.0000000e+00
1.7696000e-01 -1.0367305e-02 0.0000000e+00
1.3139661e-01 5.1364065e-02 0.0000000e+00
1.3681425e-01 -7.0245872e-02 0.0000000e+00
1.6215682e-01 2.6958861e-02 0.0000000e+00
1.6246051e-01 -3.0706111e-02 0.0000000e+00
1.6758173e-01 -2.4090323e-02 0.0000000e+00
1.7019263e-01 1.3233394e-02 0.0000000e+00
1.4693802e-01 -5.9212782e-02 0.0000000e+00
1.1945203e-01 5.7768899e-02 0.0000000e+00
1.5932142e-01 3.2734516e-02 0.0000000e+00
1.5994928e-01 -4.9882961e-02 0.0000000e+00
4.6978172e-02 -2.0559945e-02 0.0000000e+00
9.9233479e-02 6.5423443e-02 0.0000000e+00
6.3554199e-02 -5.9258506e-02 0.0000000e+00
5.0292202e-02 2.3404428e-02 0.0000000e+00
1.7222617e-01 -4.1072912e-02 0.0000000e+00
1.7071982e-01 1.5826165e-02 0.0000000e+00
1.3133138e-01 -9.1439559e-02 0.0000000e+00
1.5388447e-01 4.1758375e-02 0.0000000e+00
1.7883156e-01 3.1537889e-04 0.0000000e+00
1.7209172e-01 -3.3888530e-02 0.0000000e+00
1.4644880e-01 5.2726304e-02 0.0000000e+00
1.7834791e-01 -1.4356427e-02 0.0000000e+00
1.8227805e-01 -8.3554276e-04 0.0000000e+00
1.0298335e-01 -9.4063444e-02 0.0000000e+00
1.6335706e-01 3.8629823e-02 0.0000000e+00
1.7762688e-01 -2.2757456e-02 0.0000000e+00
1.3733476e-01 6.4767977e-02 0.0000000e+00
1.7975814e-01 -7.1246513e-03 0.0000000e+00
7.0780841e-02 6.1216464e-02 0.0000000e+00
1.7969043e-01 -3.0557167e-02 0.0000000e+00
1.2140179e-01 7.8001853e-02 0.0000000e+00
1.7271305e-01 1.1699438e-02 0.0000000e+00
1.6695549e-01 2.3339771e-02 0.0000000e+00
3.1645679e-02 -5.2358398e-03 0.0000000e+00
1.6573768e-01 3.1011996e-02 0.0000000e+00
4.3829558e-02 -5.4560122e-02 0.0000000e+00
3.1958726e-02 -2.9331614e-02 0.0000000e+00
1.5717200e-01 -8.4208299e-02 0.0000000e+00
1.7544766e-01 -6.5988697e-02 0.0000000e+00
3.0587154e-02 2.0637664e-02 0.0000000e+00
5.3017819e-02 -7.4998764e-02 0.0000000e+00
7.5234299e-02 -9.1405950e-02 0.0000000e+00
1.8574430e-01 -5.2246967e-02 0.0000000e+00
3.5354661e-02 4.1037608e-02 0.0000000e+00
4.9501649e-02 6.2270997e-02 0.0000000e+00
1.6882140e-01 1.6161007e-02 0.0000000e+00
1.8916239e-01 -3.7574024e-02 0.0000000e+00
1.3060748e-02 -1.7095846e-02 0.0000000e+00
1.9126640e-02 -3.8383343e-02 0.0000000e+00
1.6152293e-01 5.2097130e-02 0.0000000e+00
9.9652336e-02 9.2473426e-02 0.0000000e+00
1.1980603e-02 4.9223425e-03 0.0000000e+00
9.8099611e-02 -1.1226236e-01 0.0000000e+00
2.8300917e-02 -5.8767657e-02 0.0000000e+00
1.8297831e-01 -1.0413451e-02 0.0000000e+00
1.7667839e-01 -3.7878604e-04 0.0000000e+00
1.4751478e-01 -1.1288824e-01 0.0000000e+00
1.6496930e-01 4.5884966e-02 0.0000000e+00
1.4575284e-02 2.6528867e-02 0.0000000e+00
1.9354876e-01 -3.2355167e-02 0.0000000e+00
1.5753752e-01 6.5976404e-02 0.0000000e+00
6.6531297e-02 8.4894534e-02 0.0000000e+00
1.4314679e-01 8.1769854e-02 0.0000000e+00
4.2664916e-02 -7.5647672e-02 0.0000000e+00
2.3705493e-03 -8.3624464e-03 0.0000000e+00
5.3127911e-03 -2.0092567e-02 0.0000000e+00
1.8354960e-01 1.3943997e-03 0.0000000e+00
1.9298688e-03 3.4621989e-03 0.0000000e+00
1.8741339e-01 -2.3622637e-02 0.0000000e+00
1.0316774e-02 -3.1236319e-02 0.0000000e+00
1.6752236e-01 3.6109118e-02 0.0000000e+00
2.2532346e-02 4.6010191e-02 0.0000000e+00
1.2553448e-01 -1.2593650e-01 0.0000000e+00
0.0000000e+00 0.0000000e+00 0.0000000e+00
0.0000000e+00 0.0000000e+00 0.0000000e+00
1.9218276e-01 -2.7489744e-02 0.0000000e+00
1.9151736e-01 -8.6974792e-02 0.0000000e+00
3.8698056e-03 1.5381393e-02 0.0000000e+00
0.0000000e+00 0.0000000e+00 0.0000000e+00
1.7952909e-01 -4.0717832e-03 0.0000000e+00
6.0442689e-02 -9.1682277e-02 0.0000000e+00
0.0000000e+00 0.0000000e+00 0.0000000e+00
1.7743692e-02 -4.0968077e-02 0.0000000e+00
1.8398000e-01 -1.6704437e-02 0.0000000e+00
0.0000000e+00 0.0000000e+00 0.0000000e+00
1.7478262e-01 1.0078483e-02 0.0000000e+00
8.1164535e-03 2.6208229e-02 0.0000000e+00
1.6693517e-01 2.7575185e-02 0.0000000e+00
0.0000000e+00 0.0000000e+00 0.0000000e+00
3.4025361e-02 6.4981136e-02 0.0000000e+00
1.9924154e-01 -6.2895075e-02 0.0000000e+00
2.6854107e-02 -4.9663275e-02 0.0000000e+00
8.5350650e-02 1.0568958e-01 0.0000000e+00
0.0000000e+00 0.0000000e+00 0.0000000e+00
8.2253353e-02 -1.0497914e-01 0.0000000e+00
0.0000000e+00 0.0000000e+00 0.0000000e+00
1.4558994e-02 3.6545905e-02 0.0000000e+00
1.4694855e-01 -1.3319860e-01 0.0000000e+00
1.6824921e-01 2.2320980e-02 0.0000000e+00
2.0048020e-01 -4.5349603e-02 0.0000000e+00
4.9544467e-02 8.3035540e-02 0.0000000e+00
0.0000000e+00 0.0000000e+00 0.0000000e+00
3.8092925e-02 -5.6750708e-02 0.0000000e+00
1.7212057e-01 1.5194117e-02 0.0000000e+00
1.0994017e-01 1.1682848e-01 0.0000000e+00
1.7423381e-01 5.1500331e-02 0.0000000e+00
1.4111016e-01 1.0745245e-01 0.0000000e+00
1.9136765e-01 -1.1272654e-01 0.0000000e+00
0.0000000e+00 0.0000000e+00 0.0000000e+00
1.0379714e-01 -1.1442620e-01 0.0000000e+00
2.3174952e-02 4.6040249e-02 0.0000000e+00
2.0120448e-01 -3.4369410e-02 0.0000000e+00
1.8291075e-01 -9.1251748e-03 0.0000000e+00
1.7560817e-01 -1.3212262e-01 0.0000000e+00
0.0000000e+00 0.0000000e+00 0.0000000e+00
1.7952805e-01 1.5816088e-04 0.0000000e+00
5.0138200e-02 -6.1896053e-02 0.0000000e+00
6.8701256e-02 9.6969862e-02 0.0000000e+00
1.6705720e-01 8.2873810e-02 0.0000000e+00
1.9937926e-01 -2.7224009e-02 0.0000000e+00
0.0000000e+00 0.0000000e+00 0.0000000e+00
1.7694932e-01 4.3688339e-02 0.0000000e+00
1.8125900e-01 5.0358584e-03 0.0000000e+00
1.9450168e-01 -1.9841321e-02 0.0000000e+00
1.2789261e-01 -1.1608062e-01 0.0000000e+00
1.7582103e-01 6.3235518e-02 0.0000000e+00
3.3789836e-02 5.3688702e-02 0.0000000e+00
0.0000000e+00 0.0000000e+00 0.0000000e+00
1.3437362e-01 1.2740795e-01 0.0000000e+00
1.7878864e-01 -3.1527686e-03 0.0000000e+00
6.3188640e-02 -6.3380154e-02 0.0000000e+00
8.9050183e-02 1.0729283e-01 0.0000000e+00
2.0102731e-01 -1.2960375e-01 0.0000000e+00
0.0000000e+00 0.0000000e+00 0.0000000e+00
1.7607270e-01 8.2838179e-03 0.0000000e+00
2.1319771e-01 -5.4201651e-02 0.0000000e+00
1.7848195e-01 2.5068572e-02 0.0000000e+00
4.5096131e-02 5.9029207e-02 0.0000000e+00
1.5123097e-01 -1.1543559e-01 0.0000000e+00
1.9199134e-01 -1.5508340e-02 0.0000000e+00
1.7925143e-01 3.4359288e-02 0.0000000e+00
1.7614808e-01 1.3098270e-02 0.0000000e+00
0.0000000e+00 0.0000000e+00 0.0000000e+00
1.8581587e-01 -1.1711315e-02 0.0000000e+00
1.5924400e-01 1.2956232e-01 0.0000000e+00
1.8247657e-01 5.2760657e-02 0.0000000e+00
7.6157564e-02 -6.3498427e-02 0.0000000e+00
2.1002256e-01 -3.6368477e-02 0.0000000e+00
2.2198062e-01 -9.0159487e-02 0.0000000e+00
0.0000000e+00 0.0000000e+00 0.0000000e+00
1.1191384e-01 1.1262810e-01 0.0000000e+00
1.7755154e-01 2.0016217e-02 0.0000000e+00
1.8152011e-01 -3.5167665e-03 0.0000000e+00
2.2807043e-01 -1.2079254e-01 0.0000000e+00
2.0474939e-01 -2.8774885e-02 0.0000000e+00
5.7968751e-02 6.1904403e-02 0.0000000e+00
1.7497022e-01 -1.0874812e-01 0.0000000e+00
1.8004132e-01 -4.7169901e-04 0.0000000e+00
0.0000000e+00 0.0000000e+00 0.0000000e+00
1.8146540e-01 1.0341236e-01 0.0000000e+00
1.8407624e-01 2.7782224e-02 0.0000000e+00
8.9075423e-02 -6.0193579e-02 0.0000000e+00
1.7910946e-01 6.3584324e-03 0.0000000e+00
0.0000000e+00 0.0000000e+00 0.0000000e+00
1.8512202e-01 4.0389058e-02 0.0000000e+00
1.8623175e-01 6.9896580e-02 0.0000000e+00
1.3275021e-01 1.1348460e-01 0.0000000e+00
1.8162651e-01 1.2639144e-01 0.0000000e+00
6.9940149e-02 6.2225054e-02 0.0000000e+00
2.0111659e-01 -1.7897316e-02 0.0000000e+00
1.8015913e-01 -2.9167327e-03 0.0000000e+00
2.4287431e-01 -1.0641350e-01 0.0000000e+00
1.9187386e-01 -8.2010178e-03 0.0000000e+00
0.0000000e+00 0.0000000e+00 0.0000000e+00
1.9355721e-01 -9.9557978e-02 0.0000000e+00
1.7756078e-01 7.4628829e-03 0.0000000e+00
1.0047943e-01 -5.5277352e-02 0.0000000e+00
1.8211202e-01 2.0152603e-02 0.0000000e+00
0.0000000e+00 0.0000000e+00 0.0000000e+00
1.7727042e-01 1.1330403e-02 0.0000000e+00
1.8550292e-01 3.3135816e-02 0.0000000e+00
1.5445415e-01 1.0768205e-01 0.0000000e+00
2.2194039e-01 -2.6146842e-02 0.0000000e+00
2.0475599e-01 1.1526051e-01 0.0000000e+00
1.9322322e-01 4.9878983e-02 0.0000000e+00
1.8507644e-01 -2.9286075e-03 0.0000000e+00
8.2190841e-02 5.9493728e-02 0.0000000e+00
2.3603066e-01 -3.8026926e-02 0.0000000e+00
1.9733485e-01 -8.3378542e-03 0.0000000e+00
0.0000000e+00 0.0000000e+00 0.0000000e+00
2.0995738e-01 -8.1299518e-02 0.0000000e+00
2.6251326e-01 -8.1500089e-02 0.0000000e+00
2.5158482e-01 -5.7563105e-02 0.0000000e+00
1.7872932e-01 -1.0808651e-03 0.0000000e+00
2.1519778e-01 -1.7826867e-02 0.0000000e+00
1.1013004e-01 -4.6214348e-02 0.0000000e+00
1.7970209e-01 5.9364777e-03 0.0000000e+00
0.0000000e+00 0.0000000e+00 0.0000000e+00
1.7858534e-01 1.3977708e-02 0.0000000e+00
1.8253124e-01 2.3447982e-02 0.0000000e+00
1.7999613e-01 2.6774607e-03 0.0000000e+00
1.7464210e-01 9.9692169e-02 0.0000000e+00
1.9501843e-01 3.6236350e-02 0.0000000e+00
9.3411465e-02 5.5127169e-02 0.0000000e+00
2.0559080e-01 6.0539530e-02 0.0000000e+00
0.0000000e+00 0.0000000e+00 0.0000000e+00
2.2348304e-01 7.9405876e-02 0.0000000e+00
2.3245365e-01 1.0341346e-01 0.0000000e+00
2.2758922e-01 -6.4790991e-02 0.0000000e+00
2.0816156e-01 -8.3847468e-03 0.0000000e+00
1.8326017e-01 -2.1495772e-04 0.0000000e+00
1.9235907e-01 -3.2440183e-04 0.0000000e+00
2.8181167e-01 -6.1285325e-02 0.0000000e+00
1.1977526e-01 -3.7568577e-02 0.0000000e+00
0.0000000e+00 0.0000000e+00 0.0000000e+00
1.7995490e-01 5.5210773e-03 0.0000000e+00
2.3064446e-01 -1.2059434e-02 0.0000000e+00
1.7699803e-01 8.2615471e-03 0.0000000e+00
1.8083498e-01 1.6807758e-02 0.0000000e+00
1.9744779e-01 8.8651057e-02 0.0000000e+00
1.9173972e-01 2.5308824e-02 0.0000000e+00
1.0573142e-01 4.8733124e-02 0.0000000e+00
2.0948383e-01 4.0729923e-02 0.0000000e+00
0.0000000e+00 0.0000000e+00 0.0000000e+00
2.5092409e-01 9.1557741e-02 0.0000000e+00
2.4237769e-01 -1.5504356e-02 0.0000000e+00
1.8632483e-01 5.9601405e-03 0.0000000e+00
2.4148787e-01 -4.1596593e-02 0.0000000e+00
2.0098100e-01 -8.3731947e-04 0.0000000e+00
1.8171413e-01 4.8319029e-03 0.0000000e+00
1.7834389e-01 -7.7717243e-04 0.0000000e+00
1.2751957e-01 -2.5732840e-02 0.0000000e+00
2.2140217e-01 -2.1220837e-03 0.0000000e+00
0.0000000e+00 0.0000000e+00 0.0000000e+00
2.9701331e-01 -3.5621101e-02 0.0000000e+00
1.7886822e-01 1.1149396e-02 0.0000000e+00
1.8677750e-01 1.7058620e-02 0.0000000e+00
2.1326171e-01 7.1632790e-02 0.0000000e+00
2.7526432e-01 -1.7650927e-02 0.0000000e+00
2.0434773e-01 2.5614967e-02 0.0000000e+00
1.1450105e-01 3.9668869e-02 0.0000000e+00
0.0000000e+00 0.0000000e+00 0.0000000e+00
2.3054554e-01 4.5944856e-02 0.0000000e+00
1.9410300e-01 7.4900085e-03 0.0000000e+00
2.6755347e-01 6.9153483e-02 0.0000000e+00
1.8317144e-01 4.1029564e-03 0.0000000e+00
2.4753792e-01 -2.2063359e-02 0.0000000e+00
1.3731634e-01 -1.3943274e-02 0.0000000e+00
2.0961134e-01 4.8218231e-03 0.0000000e+00
1.7851830e-01 6.8710619e-03 0.0000000e+00
1.8429584e-01 6.1343869e-03 0.0000000e+00
0.0000000e+00 0.0000000e+00 0.0000000e+00
2.3253792e-01 3.8500657e-04 0.0000000e+00
1.8081943e-01 2.9497822e-03 0.0000000e+00
3.0033429e-01 -1.3028360e-02 0.0000000e+00
1.8473222e-01 1.2271297e-02 0.0000000e+00
1.9867161e-01 1.5129314e-02 0.0000000e+00
2.2732138e-01 5.4785884e-02 0.0000000e+00
1.2223449e-01 2.9646490e-02 0.0000000e+00
0.0000000e+00 0.0000000e+00 0.0000000e+00
2.1976147e-01 2.6067488e-02 0.0000000e+00
2.6125533e-01 4.3675435e-02 0.0000000e+00
1.8854372e-01 1.2055984e-02 0.0000000e+00
1.7903507e-01 -2.4965919e-04 0.0000000e+00
2.0185156e-01 8.8612507e-03 0.0000000e+00
1.8262172e-01 5.4094266e-03 0.0000000e+00
2.5600230e-01 1.9740704e-03 0.0000000e+00
2.8175940e-01 4.8246452e-02 0.0000000e+00
1.3018913e-01 -4.0176754e-05 0.0000000e+00
2.1922335e-01 1.1133085e-02 0.0000000e+00
0.0000000e+00 0.0000000e+00 0.0000000e+00
2.5811504e-01 1.0762577e-02 0.0000000e+00
1.8410939e-01 7.8641594e-03 0.0000000e+00
1.9462164e-01 1.0356298e-02 0.0000000e+00
2.9698268e-01 1.6361612e-02 0.0000000e+00