# vtk DataFile Version 4.0
vtk output
ASCII
DATASET UNSTRUCTURED_GRID
POINTS 94 float
 3.4924667e-01 2.1501435e-01 0.0000000e+00
 3.4791054e-01 2.2494940e-01 0.0000000e+00
 3.4991623e-01 2.0501225e-01 0.0000000e+00
 3.4591380e-01 2.3477302e-01 0.0000000e+00
 3.4991623e-01 1.9498775e-01 0.0000000e+00
 3.4326537e-01 2.4444134e-01 0.0000000e+00
 3.4924667e-01 1.8498565e-01 0.0000000e+00
 3.3997709e-01 2.5391117e-01 0.0000000e+00
 3.4791054e-01 1.7505060e-01 0.0000000e+00
 3.3606364e-01 2.6314021e-01 0.0000000e+00
 3.4591380e-01 1.6522698e-01 0.0000000e+00
 3.3154249e-01 2.7208726e-01 0.0000000e+00
 3.4326537e-01 1.5555866e-01 0.0000000e+00
 3.2643384e-01 2.8071235e-01 0.0000000e+00
 3.3997709e-01 1.4608883e-01 0.0000000e+00
 3.2076051e-01 2.8897696e-01 0.0000000e+00
 3.3606364e-01 1.3685979e-01 0.0000000e+00
 3.1454783e-01 2.9684418e-01 0.0000000e+00
 3.3154249e-01 1.2791274e-01 0.0000000e+00
 3.0782355e-01 3.0427886e-01 0.0000000e+00
 3.2643384e-01 1.1928765e-01 0.0000000e+00
 3.0061771e-01 3.1124782e-01 0.0000000e+00
 3.2076051e-01 1.1102304e-01 0.0000000e+00
 2.9296248e-01 3.1771991e-01 0.0000000e+00
 3.1454783e-01 1.0315582e-01 0.0000000e+00
 2.8489206e-01 3.2366623e-01 0.0000000e+00
 3.0782355e-01 9.5721136e-02 0.0000000e+00
 2.7644250e-01 3.2906024e-01 0.0000000e+00
 3.0061771e-01 8.8752184e-02 0.0000000e+00
 2.6765152e-01 3.3387783e-01 0.0000000e+00
 2.9296248e-01 8.2280092e-02 0.0000000e+00
 2.5855839e-01 3.3809748e-01 0.0000000e+00
 2.8489206e-01 7.6333766e-02 0.0000000e+00
 2.4920373e-01 3.4170036e-01 0.0000000e+00
 2.7644250e-01 7.0939763e-02 0.0000000e+00
 2.3962931e-01 3.4467038e-01 0.0000000e+00
 2.6765152e-01 6.6122175e-02 0.0000000e+00
 2.2987790e-01 3.4699426e-01 0.0000000e+00
 2.5855839e-01 6.1902517e-02 0.0000000e+00
 2.1999304e-01 3.4866162e-01 0.0000000e+00
 2.4920373e-01 5.8299636e-02 0.0000000e+00
 2.1001890e-01 3.4966503e-01 0.0000000e+00
 2.3962931e-01 5.5329624e-02 0.0000000e+00
 2.0000000e-01 3.5000000e-01 0.0000000e+00
 2.2987790e-01 5.3005744e-02 0.0000000e+00
 1.8998110e-01 3.4966503e-01 0.0000000e+00
 2.1999304e-01 5.1338377e-02 0.0000000e+00
 1.8000696e-01 3.4866162e-01 0.0000000e+00
 2.1001889e-01 5.0334968e-02 0.0000000e+00
 1.7012210e-01 3.4699426e-01 0.0000000e+00
 2.0000000e-01 5.0000000e-02 0.0000000e+00
 1.6037069e-01 3.4467038e-01 0.0000000e+00
 1.8998110e-01 5.0334968e-02 0.0000000e+00
 1.5079627e-01 3.4170036e-01 0.0000000e+00
 1.8000696e-01 5.1338377e-02 0.0000000e+00
 1.4144161e-01 3.3809748e-01 0.0000000e+00
 1.7012210e-01 5.3005744e-02 0.0000000e+00
 1.3234848e-01 3.3387783e-01 0.0000000e+00
 1.6037069e-01 5.5329624e-02 0.0000000e+00
 1.2355750e-01 3.2906024e-01 0.0000000e+00
 1.5079627e-01 5.8299636e-02 0.0000000e+00
 1.1510794e-01 3.2366623e-01 0.0000000e+00
 1.4144161e-01 6.1902517e-02 0.0000000e+00
 1.0703752e-01 3.1771991e-01 0.0000000e+00
 1.3234848e-01 6.6122175e-02 0.0000000e+00
 9.9382290e-02 3.1124782e-01 0.0000000e+00
 1.2355750e-01 7.0939763e-02 0.0000000e+00
 9.2176447e-02 3.0427886e-01 0.0000000e+00
 1.1510794e-01 7.6333766e-02 0.0000000e+00
 8.5452171e-02 2.9684418e-01 0.0000000e+00
 1.0703752e-01 8.2280092e-02 0.0000000e+00
 7.9239492e-02 2.8897696e-01 0.0000000e+00
 9.9382290e-02 8.8752184e-02 0.0000000e+00
 7.3566159e-02 2.8071235e-01 0.0000000e+00
 9.2176447e-02 9.5721136e-02 0.0000000e+00
 6.8457511e-02 2.7208726e-01 0.0000000e+00
 8.5452170e-02 1.0315582e-01 0.0000000e+00
 6.3936363e-02 2.6314021e-01 0.0000000e+00
 7.9239492e-02 1.1102304e-01 0.0000000e+00
 6.0022908e-02 2.5391117e-01 0.0000000e+00
 7.3566159e-02 1.1928765e-01 0.0000000e+00
 5.6734625e-02 2.4444134e-01 0.0000000e+00
 6.8457511e-02 1.2791274e-01 0.0000000e+00
 5.4086201e-02 2.3477302e-01 0.0000000e+00
 6.3936363e-02 1.3685979e-01 0.0000000e+00
 5.2089462e-02 2.2494940e-01 0.0000000e+00
 6.0022908e-02 1.4608883e-01 0.0000000e+00
 5.0753328e-02 2.1501435e-01 0.0000000e+00
 5.6734625e-02 1.5555866e-01 0.0000000e+00
 5.0083765e-02 2.0501225e-01 0.0000000e+00
 5.4086200e-02 1.6522698e-01 0.0000000e+00
 5.0083765e-02 1.9498775e-01 0.0000000e+00
 5.2089462e-02 1.7505060e-01 0.0000000e+00
 5.0753328e-02 1.8498565e-01 0.0000000e+00
CELLS 94 282
2 46 44
2 93 92
2 64 62
2 30 28
2 76 74
2 78 76
2 80 78
2 74 72
2 14 12
2 92 90
2 91 93
2 89 91
2 85 87
2 54 52
2 87 89
2 73 75
2 69 71
2 1 3
2 75 77
2 55 57
2 51 53
2 43 45
2 61 63
2 34 32
2 86 84
2 77 79
2 81 83
2 53 55
2 4 2
2 44 42
2 50 48
2 71 73
2 49 51
2 18 16
2 70 68
2 16 14
2 59 61
2 17 19
2 33 35
2 48 46
2 36 34
2 37 39
2 90 88
2 24 22
2 83 85
2 63 65
2 66 64
2 60 58
2 65 67
2 52 50
2 82 80
2 40 38
2 38 36
2 68 66
2 47 49
2 88 86
2 32 30
2 20 18
2 26 24
2 79 81
2 22 20
2 12 10
2 8 6
2 6 4
2 2 0
2 56 54
2 0 1
2 3 5
2 5 7
2 7 9
2 13 15
2 9 11
2 11 13
2 15 17
2 42 40
2 21 23
2 23 25
2 84 82
2 25 27
2 27 29
2 29 31
2 31 33
2 10 8
2 35 37
2 39 41
2 41 43
2 58 56
2 72 70
2 67 69
2 62 60
2 28 26
2 19 21
2 45 47
2 57 59
CELL_TYPES 94
3
3
3
3
3
3
3
3
3
3
3
3
3
3
3
3
3
3
3
3
3
3
3
3
3
3
3
3
3
3
3
3
3
3
3
3
3
3
3
3
3
3
3
3
3
3
3
3
3
3
3
3
3
3
3
3
3
3
3
3
3
3
3
3
3
3
3
3
3
3
3
3
3
3
3
3
3
3
3
3
3
3
3
3
3
3
3
3
3
3
3
3
3
3
POINT_DATA 94
VECTORS VELOCITY float
1.4528216e-01 -3.3929791e-03 0.0000000e+00
1.4600125e-01 -5.0928192e-03 0.0000000e+00
1.4474634e-01 -1.6463702e-03 0.0000000e+00
1.4664828e-01 -7.0272403e-03 0.0000000e+00
1.4476778e-01 6.0252975e-05 0.0000000e+00
1.4849298e-01 -8.9151386e-03 0.0000000e+00
1.4498324e-01 1.7509157e-03 0.0000000e+00
1.4977279e-01 -9.8923363e-03 0.0000000e+00
1.4538920e-01 3.4641760e-03 0.0000000e+00
1.5094413e-01 -1.1261306e-02 0.0000000e+00
1.4595769e-01 5.4641663e-03 0.0000000e+00
1.5242093e-01 -1.2570275e-02 0.0000000e+00
1.4770863e-01 7.4539752e-03 0.0000000e+00
1.5444071e-01 -1.3885007e-02 0.0000000e+00
1.4881774e-01 8.4672240e-03 0.0000000e+00
1.5733256e-01 -1.5032896e-02 0.0000000e+00
1.4969994e-01 1.0034516e-02 0.0000000e+00
1.6090467e-01 -1.5278926e-02 0.0000000e+00
1.5108640e-01 1.1725913e-02 0.0000000e+00
1.6320007e-01 -1.3687689e-02 0.0000000e+00
1.5325061e-01 1.3430721e-02 0.0000000e+00
1.6432913e-01 -1.3590378e-02 0.0000000e+00
1.5626405e-01 1.4747900e-02 0.0000000e+00
1.6654644e-01 -1.3875315e-02 0.0000000e+00
1.5990139e-01 1.5142123e-02 0.0000000e+00
1.6928196e-01 -1.2981425e-02 0.0000000e+00
1.6228381e-01 1.3952205e-02 0.0000000e+00
1.7125926e-01 -1.2366501e-02 0.0000000e+00
1.6390394e-01 1.3886953e-02 0.0000000e+00
1.7360328e-01 -1.1656225e-02 0.0000000e+00
1.6664866e-01 1.4595578e-02 0.0000000e+00
1.7696000e-01 -1.0367305e-02 0.0000000e+00
1.7019263e-01 1.3233394e-02 0.0000000e+00
1.7975814e-01 -7.1246513e-03 0.0000000e+00
1.7271305e-01 1.1699438e-02 0.0000000e+00
1.7952909e-01 -4.0717832e-03 0.0000000e+00
1.7478262e-01 1.0078483e-02 0.0000000e+00
1.7878864e-01 -3.1527686e-03 0.0000000e+00
1.7607270e-01 8.2838179e-03 0.0000000e+00
1.8015913e-01 -2.9167327e-03 0.0000000e+00
1.7756078e-01 7.4628829e-03 0.0000000e+00
1.8326017e-01 -2.1495772e-04 0.0000000e+00
1.7995490e-01 5.5210773e-03 0.0000000e+00
1.8317144e-01 4.1029564e-03 0.0000000e+00
1.8081943e-01 2.9497822e-03 0.0000000e+00
1.8247703e-01 8.8765407e-03 0.0000000e+00
1.8076256e-01 6.9210048e-04 0.0000000e+00
1.7776025e-01 1.2390831e-02 0.0000000e+00
1.8058064e-01 -1.1318127e-03 0.0000000e+00
1.7458107e-01 1.3181631e-02 0.0000000e+00
1.8009463e-01 -2.8981780e-03 0.0000000e+00
1.7366081e-01 1.4399621e-02 0.0000000e+00
1.7946476e-01 -4.6867433e-03 0.0000000e+00
1.7295994e-01 1.7613698e-02 0.0000000e+00
1.7889679e-01 -6.7370257e-03 0.0000000e+00
1.7033646e-01 2.1541565e-02 0.0000000e+00
1.7830379e-01 -9.7308074e-03 0.0000000e+00
1.6796609e-01 2.4504932e-02 0.0000000e+00
1.7652237e-01 -1.3462416e-02 0.0000000e+00
1.6617113e-01 2.7812851e-02 0.0000000e+00
1.7328403e-01 -1.6784733e-02 0.0000000e+00
1.6468058e-01 3.1494481e-02 0.0000000e+00
1.7122962e-01 -1.9380171e-02 0.0000000e+00
1.6272720e-01 3.5074154e-02 0.0000000e+00
1.6923721e-01 -2.3450608e-02 0.0000000e+00
1.6243139e-01 3.7032656e-02 0.0000000e+00
1.6663616e-01 -2.7484612e-02 0.0000000e+00
1.6387087e-01 3.9554610e-02 0.0000000e+00
1.6408156e-01 -3.1495085e-02 0.0000000e+00
1.6505430e-01 4.3102592e-02 0.0000000e+00
1.6113333e-01 -3.5550801e-02 0.0000000e+00
1.6591813e-01 4.3986051e-02 0.0000000e+00
1.6004677e-01 -3.7529891e-02 0.0000000e+00
1.6836581e-01 4.3386386e-02 0.0000000e+00
1.6060531e-01 -4.0543894e-02 0.0000000e+00
1.7200738e-01 4.1870675e-02 0.0000000e+00
1.6128589e-01 -4.4179335e-02 0.0000000e+00
1.7621749e-01 3.9290380e-02 0.0000000e+00
1.6176916e-01 -4.5478750e-02 0.0000000e+00
1.8054849e-01 3.5471951e-02 0.0000000e+00
1.6399678e-01 -4.5436946e-02 0.0000000e+00
1.8437092e-01 3.1199715e-02 0.0000000e+00
1.6750254e-01 -4.4284560e-02 0.0000000e+00
1.8677619e-01 2.4774348e-02 0.0000000e+00
1.7195458e-01 -4.2167898e-02 0.0000000e+00
1.8930670e-01 1.7491047e-02 0.0000000e+00
1.7677086e-01 -3.9227468e-02 0.0000000e+00
1.9084701e-01 9.7835331e-03 0.0000000e+00
1.8078713e-01 -3.5898878e-02 0.0000000e+00
1.9116466e-01 1.5380429e-03 0.0000000e+00
1.8328224e-01 -2.9708712e-02 0.0000000e+00
1.9075098e-01 -6.8728905e-03 0.0000000e+00
1.8651492e-01 -2.2650579e-02 0.0000000e+00
1.8918660e-01 -1.5035908e-02 0.0000000e+00
SCALARS PRESSURE float 1
LOOKUP_TABLE default
2.1465774e+01
2.1492054e+01
2.1452729e+01
2.1530895e+01
2.1452044e+01
2.1583826e+01
2.1464040e+01
2.1649884e+01
2.1488945e+01
2.1728002e+01
2.1526447e+01
2.1818061e+01
2.1577740e+01
2.1920109e+01
2.1642406e+01
2.2034407e+01
2.1719092e+01
2.2161647e+01
2.1807754e+01
2.2300231e+01
2.1908627e+01
2.2446926e+01
2.2022086e+01
2.2602286e+01
2.2148922e+01
2.2768612e+01
2.2287117e+01
2.2943517e+01
2.2433698e+01
2.3124954e+01
2.2589119e+01
2.3315267e+01
2.2756857e+01
2.3512685e+01
2.2933603e+01
2.3714201e+01
2.3116977e+01
2.3916423e+01
2.3307311e+01
2.4121027e+01
2.3501706e+01
2.4332499e+01
2.3702903e+01
2.4548059e+01
2.3909113e+01
2.4763910e+01
2.4117103e+01
2.4975714e+01
2.4325887e+01
2.5179770e+01
2.4534892e+01
2.5380352e+01
2.4743484e+01
2.5579745e+01
2.4951223e+01
2.5775733e+01
2.5157852e+01
2.5966921e+01
2.5362512e+01
2.6151024e+01
2.5562049e+01
2.6332208e+01
2.5755253e+01
2.6508035e+01
2.5945749e+01
2.6677740e+01
2.6130405e+01
2.6843370e+01
2.6311331e+01
2.7006977e+01
2.6486376e+01
2.7164903e+01
2.6654201e+01
2.7314645e+01
2.6817806e+01
2.7455787e+01
2.6979269e+01
2.7586983e+01
2.7135577e+01
2.7706239e+01
2.7284179e+01
2.7811208e+01
2.7424979e+01
2.7898180e+01
2.7556879e+01
2.7964411e+01
2.7678268e+01
2.8008288e+01
2.7786976e+01
2.8027860e+01
2.7877989e+01
2.8024857e+01
2.7948441e+01
2.7998298e+01
SCALARS DISTANCE float 1
LOOKUP_TABLE default
0.0000000e+00
0.0000000e+00
0.0000000e+00
0.0000000e+00
0.0000000e+00
0.0000000e+00
0.0000000e+00
0.0000000e+00
0.0000000e+00
0.0000000e+00
0.0000000e+00
0.0000000e+00
0.0000000e+00
0.0000000e+00
0.0000000e+00
0.0000000e+00
0.0000000e+00
0.0000000e+00
0.0000000e+00
0.0000000e+00
0.0000000e+00
0.0000000e+00
0.0000000e+00
0.0000000e+00
0.0000000e+00
0.0000000e+00
0.0000000e+00
0.0000000e+00
0.0000000e+00
0.0000000e+00
0.0000000e+00
0.0000000e+00
0.0000000e+00
0.0000000e+00
0.0000000e+00
0.0000000e+00
0.0000000e+00
0.0000000e+00
0.0000000e+00
0.0000000e+00
0.0000000e+00
0.0000000e+00
0.0000000e+00
0.0000000e+00
0.0000000e+00
0.0000000e+00
0.0000000e+00
0.0000000e+00
0.0000000e+00
0.0000000e+00
0.0000000e+00
0.0000000e+00
0.0000000e+00
0.0000000e+00
0.0000000e+00
0.0000000e+00
0.0000000e+00
0.0000000e+00
0.0000000e+00
0.0000000e+00
0.0000000e+00
0.0000000e+00
0.0000000e+00
0.0000000e+00
0.0000000e+00
0.0000000e+00
0.0000000e+00
0.0000000e+00
0.0000000e+00
0.0000000e+00
0.0000000e+00
0.0000000e+00
0.0000000e+00
0.0000000e+00
0.0000000e+00
0.0000000e+00
0.0000000e+00
0.0000000e+00
0.0000000e+00
0.0000000e+00
0.0000000e+00
0.0000000e+00
0.0000000e+00
0.0000000e+00
0.0000000e+00
0.0000000e+00
0.0000000e+00
0.0000000e+00
0.0000000e+00
0.0000000e+00
0.0000000e+00
0.0000000e+00
0.0000000e+00
0.0000000e+00
