# vtk DataFile Version 4.0
vtk output
ASCII
DATASET UNSTRUCTURED_GRID
POINTS 373 float
 2.2000000e+00 4.1000000e-01 0.0000000e+00
 2.1010672e+00 4.1000000e-01 0.0000000e+00
 2.2000000e+00 3.0750000e-01 0.0000000e+00
 2.0089910e+00 4.1000000e-01 0.0000000e+00
 2.2000000e+00 2.0500000e-01 0.0000000e+00
 1.9234494e+00 4.1000000e-01 0.0000000e+00
 2.2000000e+00 1.0250000e-01 0.0000000e+00
 1.8445188e+00 4.1000000e-01 0.0000000e+00
 2.2000000e+00 0.0000000e+00 0.0000000e+00
 2.1010672e+00 0.0000000e+00 0.0000000e+00
 1.7752384e+00 4.1000000e-01 0.0000000e+00
 2.0089910e+00 0.0000000e+00 0.0000000e+00
 1.7165237e+00 4.1000000e-01 0.0000000e+00
 1.9234494e+00 0.0000000e+00 0.0000000e+00
 1.6673694e+00 4.1000000e-01 0.0000000e+00
 1.8445188e+00 0.0000000e+00 0.0000000e+00
 1.6266402e+00 4.1000000e-01 0.0000000e+00
 1.7752384e+00 0.0000000e+00 0.0000000e+00
 1.5931803e+00 4.1000000e-01 0.0000000e+00
 1.7165237e+00 0.0000000e+00 0.0000000e+00
 1.5658860e+00 4.1000000e-01 0.0000000e+00
 1.5437503e+00 4.1000000e-01 0.0000000e+00
 1.6673694e+00 0.0000000e+00 0.0000000e+00
 1.5258829e+00 4.1000000e-01 0.0000000e+00
 1.5115162e+00 4.1000000e-01 0.0000000e+00
 1.5000000e+00 4.1000000e-01 0.0000000e+00
 1.6266402e+00 0.0000000e+00 0.0000000e+00
 1.4900000e+00 4.1000000e-01 0.0000000e+00
 1.4800000e+00 4.1000000e-01 0.0000000e+00
 1.4700000e+00 4.1000000e-01 0.0000000e+00
 1.5931803e+00 0.0000000e+00 0.0000000e+00
 1.4600000e+00 4.1000000e-01 0.0000000e+00
 1.4500000e+00 4.1000000e-01 0.0000000e+00
 1.5658860e+00 0.0000000e+00 0.0000000e+00
 1.4400000e+00 4.1000000e-01 0.0000000e+00
 1.4300000e+00 4.1000000e-01 0.0000000e+00
 1.5437503e+00 0.0000000e+00 0.0000000e+00
 1.4200000e+00 4.1000000e-01 0.0000000e+00
 1.5258829e+00 0.0000000e+00 0.0000000e+00
 1.4100000e+00 4.1000000e-01 0.0000000e+00
 1.4000000e+00 4.1000000e-01 0.0000000e+00
 1.5115162e+00 0.0000000e+00 0.0000000e+00
 1.3900000e+00 4.1000000e-01 0.0000000e+00
 1.5000000e+00 0.0000000e+00 0.0000000e+00
 1.4900000e+00 0.0000000e+00 0.0000000e+00
 1.3800000e+00 4.1000000e-01 0.0000000e+00
 1.4800000e+00 0.0000000e+00 0.0000000e+00
 1.3700000e+00 4.1000000e-01 0.0000000e+00
 1.4700000e+00 0.0000000e+00 0.0000000e+00
 1.3600000e+00 4.1000000e-01 0.0000000e+00
 1.4600000e+00 0.0000000e+00 0.0000000e+00
 1.3500000e+00 4.1000000e-01 0.0000000e+00
 1.4500000e+00 0.0000000e+00 0.0000000e+00
 1.3400000e+00 4.1000000e-01 0.0000000e+00
 1.4400000e+00 0.0000000e+00 0.0000000e+00
 1.3300000e+00 4.1000000e-01 0.0000000e+00
 1.4300000e+00 0.0000000e+00 0.0000000e+00
 1.3200000e+00 4.1000000e-01 0.0000000e+00
 1.4200000e+00 0.0000000e+00 0.0000000e+00
 1.3100000e+00 4.1000000e-01 0.0000000e+00
 1.4100000e+00 0.0000000e+00 0.0000000e+00
 1.4000000e+00 0.0000000e+00 0.0000000e+00
 1.3000000e+00 4.1000000e-01 0.0000000e+00
 1.3900000e+00 0.0000000e+00 0.0000000e+00
 1.2900000e+00 4.1000000e-01 0.0000000e+00
 1.3800000e+00 0.0000000e+00 0.0000000e+00
 1.2800000e+00 4.1000000e-01 0.0000000e+00
 1.3700000e+00 0.0000000e+00 0.0000000e+00
 1.2700000e+00 4.1000000e-01 0.0000000e+00
 1.3600000e+00 0.0000000e+00 0.0000000e+00
 1.2600000e+00 4.1000000e-01 0.0000000e+00
 1.3500000e+00 0.0000000e+00 0.0000000e+00
 1.2500000e+00 4.1000000e-01 0.0000000e+00
 1.3400000e+00 0.0000000e+00 0.0000000e+00
 1.2400000e+00 4.1000000e-01 0.0000000e+00
 1.3300000e+00 0.0000000e+00 0.0000000e+00
 1.2300000e+00 4.1000000e-01 0.0000000e+00
 1.3200000e+00 0.0000000e+00 0.0000000e+00
 1.3100000e+00 0.0000000e+00 0.0000000e+00
 1.2200000e+00 4.1000000e-01 0.0000000e+00
 1.3000000e+00 0.0000000e+00 0.0000000e+00
 1.2100000e+00 4.1000000e-01 0.0000000e+00
 1.2900000e+00 0.0000000e+00 0.0000000e+00
 1.2000000e+00 4.1000000e-01 0.0000000e+00
 1.2800000e+00 0.0000000e+00 0.0000000e+00
 1.1900000e+00 4.1000000e-01 0.0000000e+00
 1.2700000e+00 0.0000000e+00 0.0000000e+00
 1.1800000e+00 4.1000000e-01 0.0000000e+00
 1.2600000e+00 0.0000000e+00 0.0000000e+00
 1.1700000e+00 4.1000000e-01 0.0000000e+00
 1.2500000e+00 0.0000000e+00 0.0000000e+00
 1.1600000e+00 4.1000000e-01 0.0000000e+00
 1.2400000e+00 0.0000000e+00 0.0000000e+00
 1.1500000e+00 4.1000000e-01 0.0000000e+00
 1.2300000e+00 0.0000000e+00 0.0000000e+00
 1.1400000e+00 4.1000000e-01 0.0000000e+00
 1.2200000e+00 0.0000000e+00 0.0000000e+00
 1.1300000e+00 4.1000000e-01 0.0000000e+00
 1.2100000e+00 0.0000000e+00 0.0000000e+00
 1.1200000e+00 4.1000000e-01 0.0000000e+00
 1.2000000e+00 0.0000000e+00 0.0000000e+00
 1.1100000e+00 4.1000000e-01 0.0000000e+00
 1.1900000e+00 0.0000000e+00 0.0000000e+00
 1.1800000e+00 0.0000000e+00 0.0000000e+00
 1.1000000e+00 4.1000000e-01 0.0000000e+00
 1.1700000e+00 0.0000000e+00 0.0000000e+00
 1.0900000e+00 4.1000000e-01 0.0000000e+00
 1.1600000e+00 0.0000000e+00 0.0000000e+00
 1.0800000e+00 4.1000000e-01 0.0000000e+00
 1.1500000e+00 0.0000000e+00 0.0000000e+00
 1.0700000e+00 4.1000000e-01 0.0000000e+00
 1.1400000e+00 0.0000000e+00 0.0000000e+00
 1.0600000e+00 4.1000000e-01 0.0000000e+00
 1.1300000e+00 0.0000000e+00 0.0000000e+00
 1.0500000e+00 4.1000000e-01 0.0000000e+00
 1.1200000e+00 0.0000000e+00 0.0000000e+00
 1.0400000e+00 4.1000000e-01 0.0000000e+00
 1.1100000e+00 0.0000000e+00 0.0000000e+00
 1.0300000e+00 4.1000000e-01 0.0000000e+00
 1.1000000e+00 0.0000000e+00 0.0000000e+00
 1.0200000e+00 4.1000000e-01 0.0000000e+00
 1.0900000e+00 0.0000000e+00 0.0000000e+00
 1.0100000e+00 4.1000000e-01 0.0000000e+00
 1.0800000e+00 0.0000000e+00 0.0000000e+00
 1.0000000e+00 4.1000000e-01 0.0000000e+00
 1.0700000e+00 0.0000000e+00 0.0000000e+00
 9.9000000e-01 4.1000000e-01 0.0000000e+00
 1.0600000e+00 0.0000000e+00 0.0000000e+00
 9.8000000e-01 4.1000000e-01 0.0000000e+00
 1.0500000e+00 0.0000000e+00 0.0000000e+00
 9.7000000e-01 4.1000000e-01 0.0000000e+00
 1.0400000e+00 0.0000000e+00 0.0000000e+00
 1.0300000e+00 0.0000000e+00 0.0000000e+00
 9.6000000e-01 4.1000000e-01 0.0000000e+00
 1.0200000e+00 0.0000000e+00 0.0000000e+00
 9.5000000e-01 4.1000000e-01 0.0000000e+00
 1.0100000e+00 0.0000000e+00 0.0000000e+00
 9.4000000e-01 4.1000000e-01 0.0000000e+00
 1.0000000e+00 0.0000000e+00 0.0000000e+00
 9.3000000e-01 4.1000000e-01 0.0000000e+00
 9.9000000e-01 0.0000000e+00 0.0000000e+00
 9.2000000e-01 4.1000000e-01 0.0000000e+00
 9.8000000e-01 0.0000000e+00 0.0000000e+00
 9.1000000e-01 4.1000000e-01 0.0000000e+00
 9.7000000e-01 0.0000000e+00 0.0000000e+00
 9.0000000e-01 4.1000000e-01 0.0000000e+00
 9.6000000e-01 0.0000000e+00 0.0000000e+00
 8.9000000e-01 4.1000000e-01 0.0000000e+00
 9.5000000e-01 0.0000000e+00 0.0000000e+00
 8.8000000e-01 4.1000000e-01 0.0000000e+00
 9.4000000e-01 0.0000000e+00 0.0000000e+00
 8.7000000e-01 4.1000000e-01 0.0000000e+00
 9.3000000e-01 0.0000000e+00 0.0000000e+00
 8.6000000e-01 4.1000000e-01 0.0000000e+00
 9.2000000e-01 0.0000000e+00 0.0000000e+00
 8.5000000e-01 4.1000000e-01 0.0000000e+00
 9.1000000e-01 0.0000000e+00 0.0000000e+00
 8.4000000e-01 4.1000000e-01 0.0000000e+00
 9.0000000e-01 0.0000000e+00 0.0000000e+00
 8.3000000e-01 4.1000000e-01 0.0000000e+00
 8.9000000e-01 0.0000000e+00 0.0000000e+00
 8.2000000e-01 4.1000000e-01 0.0000000e+00
 8.8000000e-01 0.0000000e+00 0.0000000e+00
 8.1000000e-01 4.1000000e-01 0.0000000e+00
 8.7000000e-01 0.0000000e+00 0.0000000e+00
 8.0000000e-01 4.1000000e-01 0.0000000e+00
 8.6000000e-01 0.0000000e+00 0.0000000e+00
 7.9000000e-01 4.1000000e-01 0.0000000e+00
 8.5000000e-01 0.0000000e+00 0.0000000e+00
 7.8000000e-01 4.1000000e-01 0.0000000e+00
 8.4000000e-01 0.0000000e+00 0.0000000e+00
 7.7000000e-01 4.1000000e-01 0.0000000e+00
 8.3000000e-01 0.0000000e+00 0.0000000e+00
 8.2000000e-01 0.0000000e+00 0.0000000e+00
 7.6000000e-01 4.1000000e-01 0.0000000e+00
 8.1000000e-01 0.0000000e+00 0.0000000e+00
 7.5000000e-01 4.1000000e-01 0.0000000e+00
 8.0000000e-01 0.0000000e+00 0.0000000e+00
 7.4000000e-01 4.1000000e-01 0.0000000e+00
 7.9000000e-01 0.0000000e+00 0.0000000e+00
 7.3000000e-01 4.1000000e-01 0.0000000e+00
 7.8000000e-01 0.0000000e+00 0.0000000e+00
 7.2000000e-01 4.1000000e-01 0.0000000e+00
 7.7000000e-01 0.0000000e+00 0.0000000e+00
 7.1000000e-01 4.1000000e-01 0.0000000e+00
 7.6000000e-01 0.0000000e+00 0.0000000e+00
 7.0000000e-01 4.1000000e-01 0.0000000e+00
 7.5000000e-01 0.0000000e+00 0.0000000e+00
 6.9000000e-01 4.1000000e-01 0.0000000e+00
 7.4000000e-01 0.0000000e+00 0.0000000e+00
 6.8000000e-01 4.1000000e-01 0.0000000e+00
 7.3000000e-01 0.0000000e+00 0.0000000e+00
 6.7000000e-01 4.1000000e-01 0.0000000e+00
 7.2000000e-01 0.0000000e+00 0.0000000e+00
 6.6000000e-01 4.1000000e-01 0.0000000e+00
 7.1000000e-01 0.0000000e+00 0.0000000e+00
 6.5000000e-01 4.1000000e-01 0.0000000e+00
 7.0000000e-01 0.0000000e+00 0.0000000e+00
 6.4000000e-01 4.1000000e-01 0.0000000e+00
 6.9000000e-01 0.0000000e+00 0.0000000e+00
 6.3000000e-01 4.1000000e-01 0.0000000e+00
 6.8000000e-01 0.0000000e+00 0.0000000e+00
 6.2000000e-01 4.1000000e-01 0.0000000e+00
 6.7000000e-01 0.0000000e+00 0.0000000e+00
 6.1000000e-01 4.1000000e-01 0.0000000e+00
 6.6000000e-01 0.0000000e+00 0.0000000e+00
 6.0000000e-01 4.1000000e-01 0.0000000e+00
 6.5000000e-01 0.0000000e+00 0.0000000e+00
 5.9000000e-01 4.1000000e-01 0.0000000e+00
 6.4000000e-01 0.0000000e+00 0.0000000e+00
 5.8000000e-01 4.1000000e-01 0.0000000e+00
 6.3000000e-01 0.0000000e+00 0.0000000e+00
 5.7000000e-01 4.1000000e-01 0.0000000e+00
 6.2000000e-01 0.0000000e+00 0.0000000e+00
 5.6000000e-01 4.1000000e-01 0.0000000e+00
 6.1000000e-01 0.0000000e+00 0.0000000e+00
 5.5000000e-01 4.1000000e-01 0.0000000e+00
 6.0000000e-01 0.0000000e+00 0.0000000e+00
 5.4000000e-01 4.1000000e-01 0.0000000e+00
 5.9000000e-01 0.0000000e+00 0.0000000e+00
 5.3000000e-01 4.1000000e-01 0.0000000e+00
 5.8000000e-01 0.0000000e+00 0.0000000e+00
 5.2000000e-01 4.1000000e-01 0.0000000e+00
 5.7000000e-01 0.0000000e+00 0.0000000e+00
 5.1000000e-01 4.1000000e-01 0.0000000e+00
 5.6000000e-01 0.0000000e+00 0.0000000e+00
 5.0000000e-01 4.1000000e-01 0.0000000e+00
 5.5000000e-01 0.0000000e+00 0.0000000e+00
 5.4000000e-01 0.0000000e+00 0.0000000e+00
 4.9000000e-01 4.1000000e-01 0.0000000e+00
[...]
POINT_DATA 373
VECTORS VELOCITY float
0.0000000e+00 0.0000000e+00 0.0000000e+00
0.0000000e+00 0.0000000e+00 0.0000000e+00
2.6521344e-01 -2.9076167e-03 0.0000000e+00
0.0000000e+00 0.0000000e+00 0.0000000e+00
2.6167255e-01 1.4798390e-04 0.0000000e+00
0.0000000e+00 0.0000000e+00 0.0000000e+00
2.6613762e-01 3.0373247e-03 0.0000000e+00
0.0000000e+00 0.0000000e+00 0.0000000e+00
0.0000000e+00 0.0000000e+00 0.0000000e+00
0.0000000e+00 0.0000000e+00 0.0000000e+00
0.0000000e+00 0.0000000e+00 0.0000000e+00
0.0000000e+00 0.0000000e+00 0.0000000e+00
0.0000000e+00 0.0000000e+00 0.0000000e+00
0.0000000e+00 0.0000000e+00 0.0000000e+00
0.0000000e+00 0.0000000e+00 0.0000000e+00
0.0000000e+00 0.0000000e+00 0.0000000e+00
0.0000000e+00 0.0000000e+00 0.0000000e+00
0.0000000e+00 0.0000000e+00 0.0000000e+00
0.0000000e+00 0.0000000e+00 0.0000000e+00
0.0000000e+00 0.0000000e+00 0.0000000e+00
0.0000000e+00 0.0000000e+00 0.0000000e+00
0.0000000e+00 0.0000000e+00 0.0000000e+00
0.0000000e+00 0.0000000e+00 0.0000000e+00
0.0000000e+00 0.0000000e+00 0.0000000e+00
0.0000000e+00 0.0000000e+00 0.0000000e+00
0.0000000e+00 0.0000000e+00 0.0000000e+00
0.0000000e+00 0.0000000e+00 0.0000000e+00
0.0000000e+00 0.0000000e+00 0.0000000e+00
0.0000000e+00 0.0000000e+00 0.0000000e+00
0.0000000e+00 0.0000000e+00 0.0000000e+00
0.0000000e+00 0.0000000e+00 0.0000000e+00
0.0000000e+00 0.0000000e+00 0.0000000e+00
0.0000000e+00 0.0000000e+00 0.0000000e+00
0.0000000e+00 0.0000000e+00 0.0000000e+00
0.0000000e+00 0.0000000e+00 0.0000000e+00
0.0000000e+00 0.0000000e+00 0.0000000e+00
0.0000000e+00 0.0000000e+00 0.0000000e+00
0.0000000e+00 0.0000000e+00 0.0000000e+00
0.0000000e+00 0.0000000e+00 0.0000000e+00
0.0000000e+00 0.0000000e+00 0.0000000e+00
0.0000000e+00 0.0000000e+00 0.0000000e+00
0.0000000e+00 0.0000000e+00 0.0000000e+00
0.0000000e+00 0.0000000e+00 0.0000000e+00
0.0000000e+00 0.0000000e+00 0.0000000e+00
0.0000000e+00 0.0000000e+00 0.0000000e+00
0.0000000e+00 0.0000000e+00 0.0000000e+00
0.0000000e+00 0.0000000e+00 0.0000000e+00
0.0000000e+00 0.0000000e+00 0.0000000e+00
0.0000000e+00 0.0000000e+00 0.0000000e+00
0.0000000e+00 0.0000000e+00 0.0000000e+00
0.0000000e+00 0.0000000e+00 0.0000000e+00
0.0000000e+00 0.0000000e+00 0.0000000e+00
0.0000000e+00 0.0000000e+00 0.0000000e+00
0.0000000e+00 0.0000000e+00 0.0000000e+00
0.0000000e+00 0.0000000e+00 0.0000000e+00
0.0000000e+00 0.0000000e+00 0.0000000e+00
0.0000000e+00 0.0000000e+00 0.0000000e+00
0.0000000e+00 0.0000000e+00 0.0000000e+00
0.0000000e+00 0.0000000e+00 0.0000000e+00
0.0000000e+00 0.0000000e+00 0.0000000e+00
0.0000000e+00 0.0000000e+00 0.0000000e+00
0.0000000e+00 0.0000000e+00 0.0000000e+00
0.0000000e+00 0.0000000e+00 0.0000000e+00
0.0000000e+00 0.0000000e+00 0.0000000e+00
0.0000000e+00 0.0000000e+00 0.0000000e+00
0.0000000e+00 0.0000000e+00 0.0000000e+00
0.0000000e+00 0.0000000e+00 0.0000000e+00
0.0000000e+00 0.0000000e+00 0.0000000e+00
0.0000000e+00 0.0000000e+00 0.0000000e+00
0.0000000e+00 0.0000000e+00 0.0000000e+00
0.0000000e+00 0.0000000e+00 0.0000000e+00
0.0000000e+00 0.0000000e+00 0.0000000e+00
0.0000000e+00 0.0000000e+00 0.0000000e+00
0.0000000e+00 0.0000000e+00 0.0000000e+00
0.0000000e+00 0.0000000e+00 0.0000000e+00
0.0000000e+00 0.0000000e+00 0.0000000e+00
0.0000000e+00 0.0000000e+00 0.0000000e+00
0.0000000e+00 0.0000000e+00 0.0000000e+00
0.0000000e+00 0.0000000e+00 0.0000000e+00
0.0000000e+00 0.0000000e+00 0.0000000e+00
0.0000000e+00 0.0000000e+00 0.0000000e+00
0.0000000e+00 0.0000000e+00 0.0000000e+00
0.0000000e+00 0.0000000e+00 0.0000000e+00
0.0000000e+00 0.0000000e+00 0.0000000e+00
0.0000000e+00 0.0000000e+00 0.0000000e+00
0.0000000e+00 0.0000000e+00 0.0000000e+00
0.0000000e+00 0.0000000e+00 0.0000000e+00
0.0000000e+00 0.0000000e+00 0.0000000e+00
0.0000000e+00 0.0000000e+00 0.0000000e+00
0.0000000e+00 0.0000000e+00 0.0000000e+00
0.0000000e+00 0.0000000e+00 0.0000000e+00
0.0000000e+00 0.0000000e+00 0.0000000e+00
0.0000000e+00 0.0000000e+00 0.0000000e+00
0.0000000e+00 0.0000000e+00 0.0000000e+00
0.0000000e+00 0.0000000e+00 0.0000000e+00
0.0000000e+00 0.0000000e+00 0.0000000e+00
0.0000000e+00 0.0000000e+00 0.0000000e+00
0.0000000e+00 0.0000000e+00 0.0000000e+00
0.0000000e+00 0.0000000e+00 0.0000000e+00
0.0000000e+00 0.0000000e+00 0.0000000e+00
0.0000000e+00 0.0000000e+00 0.0000000e+00
0.0000000e+00 0.0000000e+00 0.0000000e+00
0.0000000e+00 0.0000000e+00 0.0000000e+00
0.0000000e+00 0.0000000e+00 0.0000000e+00
0.0000000e+00 0.0000000e+00 0.0000000e+00
0.0000000e+00 0.0000000e+00 0.0000000e+00
0.0000000e+00 0.0000000e+00 0.0000000e+00
0.0000000e+00 0.0000000e+00 0.0000000e+00
0.0000000e+00 0.0000000e+00 0.0000000e+00
0.0000000e+00 0.0000000e+00 0.0000000e+00
0.0000000e+00 0.0000000e+00 0.0000000e+00
0.0000000e+00 0.0000000e+00 0.0000000e+00
0.0000000e+00 0.0000000e+00 0.0000000e+00
0.0000000e+00 0.0000000e+00 0.0000000e+00
0.0000000e+00 0.0000000e+00 0.0000000e+00
0.0000000e+00 0.0000000e+00 0.0000000e+00
0.0000000e+00 0.0000000e+00 0.0000000e+00
0.0000000e+00 0.0000000e+00 0.0000000e+00
0.0000000e+00 0.0000000e+00 0.0000000e+00
0.0000000e+00 0.0000000e+00 0.0000000e+00
0.0000000e+00 0.0000000e+00 0.0000000e+00
0.0000000e+00 0.0000000e+00 0.0000000e+00
0.0000000e+00 0.0000000e+00 0.0000000e+00
0.0000000e+00 0.0000000e+00 0.0000000e+00
0.0000000e+00 0.0000000e+00 0.0000000e+00
0.0000000e+00 0.0000000e+00 0.0000000e+00
0.0000000e+00 0.0000000e+00 0.0000000e+00
0.0000000e+00 0.0000000e+00 0.0000000e+00
0.0000000e+00 0.0000000e+00 0.0000000e+00
0.0000000e+00 0.0000000e+00 0.0000000e+00
0.0000000e+00 0.0000000e+00 0.0000000e+00
0.0000000e+00 0.0000000e+00 0.0000000e+00
0.0000000e+00 0.0000000e+00 0.0000000e+00
0.0000000e+00 0.0000000e+00 0.0000000e+00
0.0000000e+00 0.0000000e+00 0.0000000e+00
0.0000000e+00 0.0000000e+00 0.0000000e+00
0.0000000e+00 0.0000000e+00 0.0000000e+00
0.0000000e+00 0.0000000e+00 0.0000000e+00
0.0000000e+00 0.0000000e+00 0.0000000e+00
0.0000000e+00 0.0000000e+00 0.0000000e+00
0.0000000e+00 0.0000000e+00 0.0000000e+00
0.0000000e+00 0.0000000e+00 0.0000000e+00
0.0000000e+00 0.0000000e+00 0.0000000e+00
0.0000000e+00 0.0000000e+00 0.0000000e+00
0.0000000e+00 0.0000000e+00 0.0000000e+00
0.0000000e+00 0.0000000e+00 0.0000000e+00
0.0000000e+00 0.0000000e+00 0.0000000e+00
0.0000000e+00 0.0000000e+00 0.0000000e+00
0.0000000e+00 0.0000000e+00 0.0000000e+00
0.0000000e+00 0.0000000e+00 0.0000000e+00
0.0000000e+00 0.0000000e+00 0.0000000e+00
0.0000000e+00 0.0000000e+00 0.0000000e+00
0.0000000e+00 0.0000000e+00 0.0000000e+00
0.0000000e+00 0.0000000e+00 0.0000000e+00
0.0000000e+00 0.0000000e+00 0.0000000e+00
0.0000000e+00 0.0000000e+00 0.0000000e+00
0.0000000e+00 0.0000000e+00 0.0000000e+00
0.0000000e+00 0.0000000e+00 0.0000000e+00
0.0000000e+00 0.0000000e+00 0.0000000e+00
0.0000000e+00 0.0000000e+00 0.0000000e+00
0.0000000e+00 0.0000000e+00 0.0000000e+00
0.0000000e+00 0.0000000e+00 0.0000000e+00
0.0000000e+00 0.0000000e+00 0.0000000e+00
0.0000000e+00 0.0000000e+00 0.0000000e+00
0.0000000e+00 0.0000000e+00 0.0000000e+00
0.0000000e+00 0.0000000e+00 0.0000000e+00
0.0000000e+00 0.0000000e+00 0.0000000e+00
0.0000000e+00 0.0000000e+00 0.0000000e+00
0.0000000e+00 0.0000000e+00 0.0000000e+00
0.0000000e+00 0.0000000e+00 0.0000000e+00
0.0000000e+00 0.0000000e+00 0.0000000e+00
0.0000000e+00 0.0000000e+00 0.0000000e+00
0.0000000e+00 0.0000000e+00 0.0000000e+00
0.0000000e+00 0.0000000e+00 0.0000000e+00
0.0000000e+00 0.0000000e+00 0.0000000e+00
0.0000000e+00 0.0000000e+00 0.0000000e+00
0.0000000e+00 0.0000000e+00 0.0000000e+00
0.0000000e+00 0.0000000e+00 0.0000000e+00
0.0000000e+00 0.0000000e+00 0.0000000e+00
0.0000000e+00 0.0000000e+00 0.0000000e+00
0.0000000e+00 0.0000000e+00 0.0000000e+00
0.0000000e+00 0.0000000e+00 0.0000000e+00
0.0000000e+00 0.0000000e+00 0.0000000e+00
0.0000000e+00 0.0000000e+00 0.0000000e+00
0.0000000e+00 0.0000000e+00 0.0000000e+00
0.0000000e+00 0.0000000e+00 0.0000000e+00
0.0000000e+00 0.0000000e+00 0.0000000e+00
0.0000000e+00 0.0000000e+00 0.0000000e+00
0.0000000e+00 0.0000000e+00 0.0000000e+00
0.0000000e+00 0.0000000e+00 0.0000000e+00
0.0000000e+00 0.0000000e+00 0.0000000e+00
0.0000000e+00 0.0000000e+00 0.0000000e+00
0.0000000e+00 0.0000000e+00 0.0000000e+00
0.0000000e+00 0.0000000e+00 0.0000000e+00
0.0000000e+00 0.0000000e+00 0.0000000e+00
0.0000000e+00 0.0000000e+00 0.0000000e+00
0.0000000e+00 0.0000000e+00 0.0000000e+00
0.0000000e+00 0.0000000e+00 0.0000000e+00
0.0000000e+00 0.0000000e+00 0.0000000e+00
0.0000000e+00 0.0000000e+00 0.0000000e+00
0.0000000e+00 0.0000000e+00 0.0000000e+00
0.0000000e+00 0.0000000e+00 0.0000000e+00
0.0000000e+00 0.0000000e+00 0.0000000e+00
0.0000000e+00 0.0000000e+00 0.0000000e+00
0.0000000e+00 0.0000000e+00 0.0000000e+00
0.0000000e+00 0.0000000e+00 0.0000000e+00
0.0000000e+00 0.0000000e+00 0.0000000e+00
0.0000000e+00 0.0000000e+00 0.0000000e+00
0.0000000e+00 0.0000000e+00 0.0000000e+00
0.0000000e+00 0.0000000e+00 0.0000000e+00
0.0000000e+00 0.0000000e+00 0.0000000e+00
0.0000000e+00 0.0000000e+00 0.0000000e+00
0.0000000e+00 0.0000000e+00 0.0000000e+00
0.0000000e+00 0.0000000e+00 0.0000000e+00
0.0000000e+00 0.0000000e+00 0.0000000e+00
0.0000000e+00 0.0000000e+00 0.0000000e+00
0.0000000e+00 0.0000000e+00 0.0000000e+00
0.0000000e+00 0.0000000e+00 0.0000000e+00
0.0000000e+00 0.0000000e+00 0.0000000e+00
0.0000000e+00 0.0000000e+00 0.0000000e+00
0.0000000e+00 0.0000000e+00 0.0000000e+00
0.0000000e+00 0.0000000e+00 0.0000000e+00
0.0000000e+00 0.0000000e+00 0.0000000e+00
0.0000000e+00 0.0000000e+00 0.0000000e+00
0.0000000e+00 0.0000000e+00 0.0000000e+00
0.0000000e+00 0.0000000e+00 0.0000000e+00
0.0000000e+00 0.0000000e+00 0.0000000e+00
0.0000000e+00 0.0000000e+00 0.0000000e+00
0.0000000e+00 0.0000000e+00 0.0000000e+00
0.0000000e+00 0.0000000e+00 0.0000000e+00
0.0000000e+00 0.0000000e+00 0.0000000e+00
0.0000000e+00 0.0000000e+00 0.0000000e+00
0.0000000e+00 0.0000000e+00 0.0000000e+00
0.0000000e+00 0.0000000e+00 0.0000000e+00
0.0000000e+00 0.0000000e+00 0.0000000e+00
0.0000000e+00 0.0000000e+00 0.0000000e+00
0.0000000e+00 0.0000000e+00 0.0000000e+00
0.0000000e+00 0.0000000e+00 0.0000000e+00
0.0000000e+00 0.0000000e+00 0.0000000e+00
0.0000000e+00 0.0000000e+00 0.0000000e+00
0.0000000e+00 0.0000000e+00 0.0000000e+00
0.0000000e+00 0.0000000e+00 0.0000000e+00
0.0000000e+00 0.0000000e+00 0.0000000e+00
0.0000000e+00 0.0000000e+00 0.0000000e+00
0.0000000e+00 0.0000000e+00 0.0000000e+00
0.0000000e+00 0.0000000e+00 0.0000000e+00
0.0000000e+00 0.0000000e+00 0.0000000e+00
0.0000000e+00 0.0000000e+00 0.0000000e+00
0.0000000e+00 0.0000000e+00 0.0000000e+00
0.0000000e+00 0.0000000e+00 0.0000000e+00
0.0000000e+00 0.0000000e+00 0.0000000e+00
0.0000000e+00 0.0000000e+00 0.0000000e+00
0.0000000e+00 0.0000000e+00 0.0000000e+00
0.0000000e+00 0.0000000e+00 0.0000000e+00
0.0000000e+00 0.0000000e+00 0.0000000e+00
0.0000000e+00 0.0000000e+00 0.0000000e+00
0.0000000e+00 0.0000000e+00 0.0000000e+00
0.0000000e+00 0.0000000e+00 0.0000000e+00
0.0000000e+00 0.0000000e+00 0.0000000e+00
0.0000000e+00 0.0000000e+00 0.0000000e+00
0.0000000e+00 0.0000000e+00 0.0000000e+00
0.0000000e+00 0.0000000e+00 0.0000000e+00
0.0000000e+00 0.0000000e+00 0.0000000e+00
0.0000000e+00 0.0000000e+00 0.0000000e+00
0.0000000e+00 0.0000000e+00 0.0000000e+00
0.0000000e+00 0.0000000e+00 0.0000000e+00
0.0000000e+00 0.0000000e+00 0.0000000e+00
0.0000000e+00 0.0000000e+00 0.0000000e+00
0.0000000e+00 0.0000000e+00 0.0000000e+00
0.0000000e+00 0.0000000e+00 0.0000000e+00
0.0000000e+00 0.0000000e+00 0.0000000e+00
0.0000000e+00 0.0000000e+00 0.0000000e+00
0.0000000e+00 0.0000000e+00 0.0000000e+00
0.0000000e+00 0.0000000e+00 0.0000000e+00
0.0000000e+00 0.0000000e+00 0.0000000e+00
0.0000000e+00 0.0000000e+00 0.0000000e+00
0.0000000e+00 0.0000000e+00 0.0000000e+00
0.0000000e+00 0.0000000e+00 0.0000000e+00
0.0000000e+00 0.0000000e+00 0.0000000e+00
0.0000000e+00 0.0000000e+00 0.0000000e+00
0.0000000e+00 0.0000000e+00 0.0000000e+00
0.0000000e+00 0.0000000e+00 0.0000000e+00
0.0000000e+00 0.0000000e+00 0.0000000e+00
0.0000000e+00 0.0000000e+00 0.0000000e+00
0.0000000e+00 0.0000000e+00 0.0000000e+00
0.0000000e+00 0.0000000e+00 0.0000000e+00
0.0000000e+00 0.0000000e+00 0.0000000e+00
0.0000000e+00 0.0000000e+00 0.0000000e+00
0.0000000e+00 0.0000000e+00 0.0000000e+00
0.0000000e+00 0.0000000e+00 0.0000000e+00
0.0000000e+00 0.0000000e+00 0.0000000e+00
0.0000000e+00 0.0000000e+00 0.0000000e+00
0.0000000e+00 0.0000000e+00 0.0000000e+00
0.0000000e+00 0.0000000e+00 0.0000000e+00
0.0000000e+00 0.0000000e+00 0.0000000e+00
0.0000000e+00 0.0000000e+00 0.0000000e+00
0.0000000e+00 0.0000000e+00 0.0000000e+00
0.0000000e+00 0.0000000e+00 0.0000000e+00
0.0000000e+00 0.0000000e+00 0.0000000e+00
0.0000000e+00 0.0000000e+00 0.0000000e+00
0.0000000e+00 0.0000000e+00 0.0000000e+00
0.0000000e+00 0.0000000e+00 0.0000000e+00
0.0000000e+00 0.0000000e+00 0.0000000e+00
0.0000000e+00 0.0000000e+00 0.0000000e+00
0.0000000e+00 0.0000000e+00 0.0000000e+00
0.0000000e+00 0.0000000e+00 0.0000000e+00
0.0000000e+00 0.0000000e+00 0.0000000e+00
0.0000000e+00 0.0000000e+00 0.0000000e+00
0.0000000e+00 0.0000000e+00 0.0000000e+00
0.0000000e+00 0.0000000e+00 0.0000000e+00
0.0000000e+00 0.0000000e+00 0.0000000e+00
0.0000000e+00 0.0000000e+00 0.0000000e+00
0.0000000e+00 0.0000000e+00 0.0000000e+00
0.0000000e+00 0.0000000e+00 0.0000000e+00
0.0000000e+00 0.0000000e+00 0.0000000e+00
0.0000000e+00 0.0000000e+00 0.0000000e+00
0.0000000e+00 0.0000000e+00 0.0000000e+00
0.0000000e+00 0.0000000e+00 0.0000000e+00
0.0000000e+00 0.0000000e+00 0.0000000e+00
0.0000000e+00 0.0000000e+00 0.0000000e+00
0.0000000e+00 0.0000000e+00 0.0000000e+00
0.0000000e+00 0.0000000e+00 0.0000000e+00
0.0000000e+00 0.0000000e+00 0.0000000e+00
0.0000000e+00 0.0000000e+00 0.0000000e+00
0.0000000e+00 0.0000000e+00 0.0000000e+00
0.0000000e+00 0.0000000e+00 0.0000000e+00
0.0000000e+00 0.0000000e+00 0.0000000e+00
0.0000000e+00 0.0000000e+00 0.0000000e+00
0.0000000e+00 0.0000000e+00 0.0000000e+00
2.8554432e-02 -0.0000000e+00 -0.0000000e+00
5.5681142e-02 -0.0000000e+00 -0.0000000e+00
8.1380131e-02 -0.0000000e+00 -0.0000000e+00
1.0565140e-01 -0.0000000e+00 -0.0000000e+00
1.2849494e-01 -0.0000000e+00 -0.0000000e+00
1.4991077e-01 -0.0000000e+00 -0.0000000e+00
1.6989887e-01 -0.0000000e+00 -0.0000000e+00
1.8845925e-01 -0.0000000e+00 -0.0000000e+00
2.0559191e-01 -0.0000000e+00 -0.0000000e+00
2.2129685e-01 -0.0000000e+00 -0.0000000e+00
2.3557406e-01 -0.0000000e+00 -0.0000000e+00
2.4842356e-01 -0.0000000e+00 -0.0000000e+00
2.5984533e-01 -0.0000000e+00 -0.0000000e+00
2.6983938e-01 -0.0000000e+00 -0.0000000e+00
2.7840571e-01 -0.0000000e+00 -0.0000000e+00
2.8554432e-01 -0.0000000e+00 -0.0000000e+00
2.9125521e-01 -0.0000000e+00 -0.0000000e+00
2.9553837e-01 -0.0000000e+00 -0.0000000e+00
2.9839381e-01 -0.0000000e+00 -0.0000000e+00
0.0000000e+00 0.0000000e+00 0.0000000e+00
2.9982153e-01 -0.0000000e+00 -0.0000000e+00
2.9982153e-01 -0.0000000e+00 -0.0000000e+00
2.9839381e-01 -0.0000000e+00 -0.0000000e+00
2.9553837e-01 -0.0000000e+00 -0.0000000e+00
2.9125521e-01 -0.0000000e+00 -0.0000000e+00
2.8554432e-01 -0.0000000e+00 -0.0000000e+00
2.7840571e-01 -0.0000000e+00 -0.0000000e+00
2.6983938e-01 -0.0000000e+00 -0.0000000e+00
2.5984533e-01 -0.0000000e+00 -0.0000000e+00
0.0000000e+00 0.0000000e+00 0.0000000e+00
2.4842356e-01 -0.0000000e+00 -0.0000000e+00
2.3557406e-01 -0.0000000e+00 -0.0000000e+00
2.2129685e-01 -0.0000000e+00 -0.0000000e+00
2.0559191e-01 -0.0000000e+00 -0.0000000e+00
1.8845925e-01 -0.0000000e+00 -0.0000000e+00
1.6989887e-01 -0.0000000e+00 -0.0000000e+00
1.4991077e-01 -0.0000000e+00 -0.0000000e+00
0.0000000e+00 0.0000000e+00 0.0000000e+00
1.2849494e-01 -0.0000000e+00 -0.0000000e+00
1.0565140e-01 -0.0000000e+00 -0.0000000e+00
8.1380131e-02 -0.0000000e+00 -0.0000000e+00
5.5681142e-02 -0.0000000e+00 -0.0000000e+00
2.8554432e-02 -0.0000000e+00 -0.0000000e+00
0.0000000e+00 0.0000000e+00 0.0000000e+00
SCALARS PRESSURE float 1
LOOKUP_TABLE default
0.0000000e+00
-2.2762465e-02
0.0000000e+00
-1.6166739e-01
0.0000000e+00
-2.1790046e-01
0.0000000e+00
-2.4140121e-01
0.0000000e+00
-3.5152368e-02
-2.0032496e-01
-1.6338930e-01
-2.6737318e-01
-1.3316155e-01
-2.8895268e-01
-2.2082494e-01
-2.2381560e-01
-2.7456373e-01
-2.1935081e-01
-2.1055531e-01
-2.0468773e-01
-2.1006933e-01
-2.0154203e-01
-1.4886558e-01
-1.4555837e-01
-1.4360666e-01
-2.3855077e-01
-1.3515083e-01
-1.2872102e-01
-1.2814698e-01
-2.4477139e-01
-1.3263496e-01
-1.4002423e-01
-1.9541686e-01
-1.4897384e-01
-1.5877106e-01
-1.7918070e-01
-1.6902953e-01
-1.7683728e-01
-1.7953567e-01
-1.9016873e-01
-1.6274578e-01
-2.0085950e-01
-1.5513261e-01
-1.4400115e-01
-2.1156845e-01
-1.3602681e-01
-2.2227364e-01
-1.3464553e-01
-2.3296393e-01
-1.3875828e-01
-2.4363503e-01
-1.4602145e-01
-2.5428707e-01
-1.5502368e-01
-2.6492321e-01
-1.6501035e-01
-2.7554878e-01
-1.7557651e-01
-2.8617078e-01
-1.8647936e-01
-1.9758532e-01
-2.9679762e-01
-2.0882578e-01
-3.0743894e-01
-2.2016255e-01
-3.1810566e-01
-2.3157609e-01
-3.2880986e-01
-2.4305882e-01
-3.3956476e-01
-2.5460987e-01
-3.5038430e-01
-2.6622976e-01
-3.6128189e-01
-2.7791937e-01
-3.7226672e-01
-2.8967201e-01
-3.0145835e-01
-3.8333229e-01
-3.1318486e-01
-3.9441927e-01
-3.2459772e-01
-4.0542310e-01
-3.3509558e-01
-4.1621336e-01
-3.4384992e-01
-4.2619142e-01
-3.5357942e-01
-4.3539300e-01
-3.6384297e-01
-4.4607675e-01
-3.7131183e-01
-4.5241739e-01
-3.8088218e-01
-4.6315059e-01
-3.8928418e-01
-4.6974785e-01
-3.9673976e-01
-4.7783231e-01
-4.0370679e-01
-4.8536097e-01
-4.1045226e-01
-4.1712110e-01
-4.9229698e-01
-4.2378870e-01
-4.9888212e-01
-4.3049124e-01
-5.0530814e-01
-4.3724346e-01
-5.1168993e-01
-4.4404861e-01
-5.1808858e-01
-4.5090407e-01
-5.2453326e-01
-4.5780439e-01
-5.3103527e-01
-4.6474287e-01
-5.3759635e-01
-4.7171247e-01
-5.4421320e-01
-4.7870617e-01
-5.5088012e-01
-4.8571723e-01
-5.5759042e-01
-4.9273921e-01
-5.6433743e-01
-4.9976596e-01
-5.7111532e-01
-5.0679166e-01
-5.7792014e-01
-5.1381067e-01
-5.2081753e-01
-5.8475150e-01
-5.2780688e-01
-5.9161514e-01
-5.3477338e-01
-5.9852660e-01
-5.4171167e-01
-6.0551364e-01
-5.4861630e-01
-6.1260388e-01
-5.5548174e-01
-6.1980716e-01
-5.6230239e-01
-6.2893868e-01
-5.6907276e-01
-6.3870086e-01
-5.7578795e-01
-6.4834238e-01
-5.8244475e-01
-6.5546574e-01
-5.8904382e-01
-6.6484786e-01
-5.9559241e-01
-6.7538078e-01
-6.0209882e-01
-6.8406676e-01
-6.0850055e-01
-6.9382652e-01
-6.1418903e-01
-7.0390608e-01
-6.1998524e-01
-7.1597330e-01
-6.2626507e-01
-7.2402672e-01
-6.3264450e-01
-7.3385142e-01
-6.3926291e-01
-7.4297818e-01
-6.4646540e-01
-7.5136782e-01
-6.5482755e-01
-6.6353959e-01
-7.5930570e-01
-6.6913235e-01
-7.6701613e-01
-6.7800618e-01
-7.7463383e-01
-6.8565698e-01
-7.8223065e-01
-6.9406081e-01
-7.8983797e-01
-7.0385507e-01
-7.9745455e-01
-7.1425027e-01
-8.0502887e-01
-7.2481363e-01
-8.1242214e-01
-7.3535004e-01
-8.2103874e-01
-7.4578221e-01
-8.2966390e-01
-7.5608545e-01
-8.3730598e-01
-7.6625771e-01
-8.4514631e-01
-7.7630627e-01
-8.5310281e-01
-7.8624173e-01
-8.6112814e-01
-7.9607539e-01
-8.6920238e-01
-8.0581811e-01
-8.7731571e-01
-8.1547986e-01
-8.8546229e-01
-8.2506962e-01
-8.9363798e-01
-8.3459539e-01
-9.0183942e-01
-8.4406430e-01
-9.1006366e-01
-8.5348267e-01
-9.1830792e-01
-8.6285617e-01
-9.2656951e-01
-8.7218984e-01
-9.3484576e-01
-8.8148821e-01
-9.4313391e-01
-8.9075536e-01
-9.5143112e-01
-8.9999494e-01
-9.5973433e-01
-9.0921026e-01
-9.6804027e-01
-9.1840428e-01
-9.2757964e-01
-9.7634533e-01
-9.3673866e-01
-9.8464556e-01
-9.4588336e-01
-9.9293650e-01
-9.5501540e-01
-1.0012132e+00
-9.6413613e-01
-1.0094700e+00
-9.7324645e-01
-1.0177006e+00
-9.8234686e-01
-1.0258978e+00
-9.9143735e-01
-1.0340534e+00
-1.0005173e+00
-1.0421582e+00
-1.0095855e+00
-1.0502018e+00
-1.0186398e+00
-1.0581726e+00
-1.0276772e+00
-1.0660576e+00
-1.0366938e+00
-1.0738422e+00
-1.0456843e+00
-1.0815105e+00
-1.0546420e+00
-1.0890452e+00
-1.0635589e+00
-1.0964274e+00
-1.0724249e+00
-1.1036370e+00
-1.0812284e+00
-1.1106531e+00
-1.0899553e+00
-1.1174544e+00
-1.0985899e+00
-1.1240201e+00
-1.1071138e+00
-1.1303312e+00
-1.1155068e+00
-1.1363727e+00
-1.1237468e+00
-1.1421338e+00
-1.1318100e+00
-1.1475914e+00
-1.1396720e+00
-1.1525978e+00