# vtk DataFile Version 4.0
vtk output
ASCII
DATASET UNSTRUCTURED_GRID
POINTS 971 float
 3.4924667e-01 2.1501435e-01 0.0000000e+00
 3.4791054e-01 2.2494940e-01 0.0000000e+00
 3.4991623e-01 2.0501225e-01 0.0000000e+00
 3.4591380e-01 2.3477302e-01 0.0000000e+00
 3.4991623e-01 1.9498775e-01 0.0000000e+00
 3.4326537e-01 2.4444134e-01 0.0000000e+00
 3.4924667e-01 1.8498565e-01 0.0000000e+00
 3.3997709e-01 2.5391117e-01 0.0000000e+00
 3.4791054e-01 1.7505060e-01 0.0000000e+00
 3.4238278e-01 2.1087043e-01 0.0000000e+00
 3.4133876e-01 2.2035628e-01 0.0000000e+00
 3.4279089e-01 2.0133604e-01 0.0000000e+00
 3.3966348e-01 2.2975121e-01 0.0000000e+00
 3.3606364e-01 2.6314021e-01 0.0000000e+00
 3.4591380e-01 1.6522698e-01 0.0000000e+00
 3.4256126e-01 1.9179568e-01 0.0000000e+00
 3.3736444e-01 2.3901326e-01 0.0000000e+00
 3.4169491e-01 1.8229195e-01 0.0000000e+00
 3.3445189e-01 2.4810108e-01 0.0000000e+00
 3.3154249e-01 2.7208726e-01 0.0000000e+00
 3.4326537e-01 1.5555866e-01 0.0000000e+00
 3.4019572e-01 1.7286732e-01 0.0000000e+00
 3.3504127e-01 2.1432007e-01 0.0000000e+00
 3.3093884e-01 2.5697406e-01 0.0000000e+00
 3.3393451e-01 2.0573289e-01 0.0000000e+00
 3.3197535e-01 2.2353346e-01 0.0000000e+00
 3.2643384e-01 2.8071235e-01 0.0000000e+00
 3.3401833e-01 1.9677424e-01 0.0000000e+00
 3.3807039e-01 1.6356387e-01 0.0000000e+00
 3.3010878e-01 2.3229588e-01 0.0000000e+00
 3.3997709e-01 1.4608883e-01 0.0000000e+00
 3.2684099e-01 2.6559258e-01 0.0000000e+00
 3.3350359e-01 1.8783001e-01 0.0000000e+00
 3.2766110e-01 2.4091407e-01 0.0000000e+00
 3.3402644e-01 1.7813399e-01 0.0000000e+00
 3.3532839e-01 1.5442315e-01 0.0000000e+00
 3.2464326e-01 2.4934953e-01 0.0000000e+00
 3.2217664e-01 2.7391814e-01 0.0000000e+00
 3.2076051e-01 2.8897696e-01 0.0000000e+00
 3.2240868e-01 2.5879902e-01 0.0000000e+00
 3.3606364e-01 1.3685979e-01 0.0000000e+00
 3.2624717e-01 2.1318032e-01 0.0000000e+00
 3.3069030e-01 1.7014431e-01 0.0000000e+00
 3.2360563e-01 2.2478086e-01 0.0000000e+00
 3.2531654e-01 2.0117254e-01 0.0000000e+00
 3.3198199e-01 1.4548599e-01 0.0000000e+00
 3.2576081e-01 1.9124434e-01 0.0000000e+00
 3.1696662e-01 2.8191358e-01 0.0000000e+00
 3.2055416e-01 2.3423893e-01 0.0000000e+00
 3.2840432e-01 1.6148183e-01 0.0000000e+00
 3.1695348e-01 2.6552253e-01 0.0000000e+00
 3.1454783e-01 2.9684418e-01 0.0000000e+00
 3.2524369e-01 1.7935809e-01 0.0000000e+00
 3.1817867e-01 2.4388899e-01 0.0000000e+00
 3.3154249e-01 1.2791274e-01 0.0000000e+00
 3.2736372e-01 1.5288638e-01 0.0000000e+00
 3.2804613e-01 1.3679230e-01 0.0000000e+00
 3.1438512e-01 2.5501566e-01 0.0000000e+00
 3.1123419e-01 2.8954316e-01 0.0000000e+00
 3.1231589e-01 2.7318784e-01 0.0000000e+00
 3.1706848e-01 2.1635733e-01 0.0000000e+00
 3.2117372e-01 1.6802282e-01 0.0000000e+00
 3.1383798e-01 2.2685080e-01 0.0000000e+00
 3.0782355e-01 3.0427886e-01 0.0000000e+00
 3.1688708e-01 1.9582130e-01 0.0000000e+00
 3.0889198e-01 2.8114029e-01 0.0000000e+00
 3.2643384e-01 1.1928765e-01 0.0000000e+00
 3.1723047e-01 1.8484719e-01 0.0000000e+00
 3.2212466e-01 1.4471089e-01 0.0000000e+00
 3.1438563e-01 2.0524277e-01 0.0000000e+00
 3.1095720e-01 2.3699392e-01 0.0000000e+00
 3.2353837e-01 1.2838092e-01 0.0000000e+00
 3.1906623e-01 1.5602374e-01 0.0000000e+00
 3.0722501e-01 2.6487225e-01 0.0000000e+00
 3.0500497e-01 2.9677282e-01 0.0000000e+00
 3.0858741e-01 2.4670510e-01 0.0000000e+00
 3.1432047e-01 1.7528399e-01 0.0000000e+00
 3.1815903e-01 1.3667733e-01 0.0000000e+00
 3.0061771e-01 3.1124782e-01 0.0000000e+00
 3.0827160e-01 2.1160385e-01 0.0000000e+00
 3.0155876e-01 2.8750506e-01 0.0000000e+00
 3.0190635e-01 2.7567803e-01 0.0000000e+00
 3.2076051e-01 1.1102304e-01 0.0000000e+00
 3.0610286e-01 2.2036743e-01 0.0000000e+00
 3.0269936e-01 2.5597224e-01 0.0000000e+00
 3.1847887e-01 1.2028940e-01 0.0000000e+00
 3.1162999e-01 1.6508874e-01 0.0000000e+00
 2.9830677e-01 3.0357028e-01 0.0000000e+00
 3.1370536e-01 1.4556166e-01 0.0000000e+00
 3.0373080e-01 2.3008202e-01 0.0000000e+00
 3.0749030e-01 1.8258670e-01 0.0000000e+00
 3.0135893e-01 2.3979641e-01 0.0000000e+00
 3.1366568e-01 1.2892658e-01 0.0000000e+00
 3.0500965e-01 1.9453096e-01 0.0000000e+00
 2.9548728e-01 2.9409303e-01 0.0000000e+00
 3.0906187e-01 1.5441383e-01 0.0000000e+00
 2.9875873e-01 2.4747756e-01 0.0000000e+00
 2.9724118e-01 2.6499388e-01 0.0000000e+00
 3.0189888e-01 2.0403310e-01 0.0000000e+00
 2.9296248e-01 3.1771991e-01 0.0000000e+00
 3.0458044e-01 1.7301968e-01 0.0000000e+00
 3.1454783e-01 1.0315582e-01 0.0000000e+00
 3.1289021e-01 1.1255388e-01 0.0000000e+00
 2.9372174e-01 2.8431298e-01 0.0000000e+00
 3.0842009e-01 1.3714546e-01 0.0000000e+00
 2.9896720e-01 2.1347277e-01 0.0000000e+00
 2.9116951e-01 3.0990516e-01 0.0000000e+00
 3.0440671e-01 1.6326395e-01 0.0000000e+00
 2.9238993e-01 2.7373392e-01 0.0000000e+00
 2.9661202e-01 2.2320365e-01 0.0000000e+00
 3.0866467e-01 1.2149327e-01 0.0000000e+00
 2.9424472e-01 2.3293087e-01 0.0000000e+00
 2.8898932e-01 3.0026075e-01 0.0000000e+00
 3.0372871e-01 1.4595923e-01 0.0000000e+00
 2.9775440e-01 1.8849019e-01 0.0000000e+00
 2.9183629e-01 2.4264058e-01 0.0000000e+00
 2.9541658e-01 1.9659059e-01 0.0000000e+00
 2.8489206e-01 3.2366623e-01 0.0000000e+00
 3.0374277e-01 1.2837681e-01 0.0000000e+00
 2.8938807e-01 2.5231435e-01 0.0000000e+00
 2.8627626e-01 2.9089564e-01 0.0000000e+00
 3.0679736e-01 1.0520893e-01 0.0000000e+00
 2.9850768e-01 1.5828094e-01 0.0000000e+00
 3.0782355e-01 9.5721136e-02 0.0000000e+00
 2.8724354e-01 2.6516098e-01 0.0000000e+00
 2.9244675e-01 2.0612875e-01 0.0000000e+00
 2.8362506e-01 3.1574918e-01 0.0000000e+00
 3.0417328e-01 1.1288434e-01 0.0000000e+00
 2.8358606e-01 3.0702607e-01 0.0000000e+00
 2.9462880e-01 1.7929501e-01 0.0000000e+00
 2.9548647e-01 1.6815284e-01 0.0000000e+00
 2.8426276e-01 2.8111620e-01 0.0000000e+00
 2.8968408e-01 2.1634777e-01 0.0000000e+00
 2.9844029e-01 1.3683704e-01 0.0000000e+00
 2.8732343e-01 2.2612202e-01 0.0000000e+00
 2.8204049e-01 2.7365197e-01 0.0000000e+00
 2.8490165e-01 2.3586888e-01 0.0000000e+00
 2.9488844e-01 1.4556978e-01 0.0000000e+00
 2.8903485e-01 1.8912694e-01 0.0000000e+00
 2.8238782e-01 2.4554445e-01 0.0000000e+00
 2.7829175e-01 2.9991232e-01 0.0000000e+00
 2.9724041e-01 1.1841340e-01 0.0000000e+00
 3.0022752e-01 9.8287330e-02 0.0000000e+00
 2.7644250e-01 3.2906024e-01 0.0000000e+00
 2.8615985e-01 1.9868985e-01 0.0000000e+00
 2.9111188e-01 1.5319869e-01 0.0000000e+00
 2.7989586e-01 2.5520006e-01 0.0000000e+00
 2.7570712e-01 3.2107624e-01 0.0000000e+00
 3.0061771e-01 8.8752184e-02 0.0000000e+00
 2.9723119e-01 1.0771016e-01 0.0000000e+00
 2.7844169e-01 2.6523917e-01 0.0000000e+00
 2.7661503e-01 2.8837526e-01 0.0000000e+00
 2.8323281e-01 2.0831106e-01 0.0000000e+00
 2.7483186e-01 3.1122729e-01 0.0000000e+00
 2.9314316e-01 1.2721990e-01 0.0000000e+00
 2.8819213e-01 1.6264581e-01 0.0000000e+00
 2.9099157e-01 1.3698544e-01 0.0000000e+00
 2.8059032e-01 2.1932099e-01 0.0000000e+00
 2.8541123e-01 1.7209093e-01 0.0000000e+00
 2.7811610e-01 2.2913690e-01 0.0000000e+00
 2.8264393e-01 1.8159776e-01 0.0000000e+00
 2.7559804e-01 2.3888492e-01 0.0000000e+00
 2.8000107e-01 1.9117393e-01 0.0000000e+00
 2.7205846e-01 2.7326312e-01 0.0000000e+00
 2.9321004e-01 9.1820008e-02 0.0000000e+00
 2.8495639e-01 1.4388437e-01 0.0000000e+00
 2.7299279e-01 2.4852002e-01 0.0000000e+00
 2.6962708e-01 2.9552309e-01 0.0000000e+00
 2.6765152e-01 3.3387783e-01 0.0000000e+00
 2.9084978e-01 1.0142193e-01 0.0000000e+00
 2.6745106e-01 3.2586254e-01 0.0000000e+00
 2.7143064e-01 2.5934873e-01 0.0000000e+00
 2.6811663e-01 3.0607812e-01 0.0000000e+00
 2.9296248e-01 8.2280092e-02 0.0000000e+00
 2.6723559e-01 3.1597712e-01 0.0000000e+00
 2.8158889e-01 1.5514164e-01 0.0000000e+00
 2.8796196e-01 1.1073464e-01 0.0000000e+00
 2.7535576e-01 2.0126239e-01 0.0000000e+00
 2.8576582e-01 1.2047469e-01 0.0000000e+00
 2.7402023e-01 2.1249279e-01 0.0000000e+00
 2.7264694e-01 2.2226960e-01 0.0000000e+00
 2.8361072e-01 1.3023872e-01 0.0000000e+00
 2.7885565e-01 1.6454687e-01 0.0000000e+00
 2.7625689e-01 1.7397915e-01 0.0000000e+00
 2.6889347e-01 2.3223198e-01 0.0000000e+00
 2.6430673e-01 2.8293669e-01 0.0000000e+00
 2.7285231e-01 1.8365274e-01 0.0000000e+00
 2.7781344e-01 1.3827261e-01 0.0000000e+00
 2.6592741e-01 2.4101224e-01 0.0000000e+00
 2.8577626e-01 8.5835845e-02 0.0000000e+00
 2.8406261e-01 9.5573977e-02 0.0000000e+00
 2.5933903e-01 3.2020897e-01 0.0000000e+00
 2.5889374e-01 3.3008670e-01 0.0000000e+00
 2.5855839e-01 3.3809748e-01 0.0000000e+00
 2.7496255e-01 1.4762401e-01 0.0000000e+00
 2.6359991e-01 2.5159862e-01 0.0000000e+00
 2.8113418e-01 1.0351329e-01 0.0000000e+00
 2.5983831e-01 3.0049591e-01 0.0000000e+00
 2.5919659e-01 3.1045983e-01 0.0000000e+00
 2.8489206e-01 7.6333766e-02 0.0000000e+00
 2.6159515e-01 2.6227136e-01 0.0000000e+00
 2.7228792e-01 1.5693930e-01 0.0000000e+00
 2.7825526e-01 1.1307380e-01 0.0000000e+00
 2.5886019e-01 2.7249079e-01 0.0000000e+00
 2.6390447e-01 2.0631955e-01 0.0000000e+00
 2.6792303e-01 1.6691085e-01 0.0000000e+00
 2.6161456e-01 2.1816534e-01 0.0000000e+00
 2.6423254e-01 1.9201193e-01 0.0000000e+00
 2.5590761e-01 2.8026802e-01 0.0000000e+00
 2.7745636e-01 8.8457534e-02 0.0000000e+00
 2.5775642e-01 2.4382124e-01 0.0000000e+00
 2.7081438e-01 1.2553348e-01 0.0000000e+00
 2.7795939e-01 8.0361561e-02 0.0000000e+00
 2.5347462e-01 2.8986751e-01 0.0000000e+00
 2.6822830e-01 1.3925771e-01 0.0000000e+00
 2.5117744e-01 3.2390394e-01 0.0000000e+00
 2.5007339e-01 3.3372987e-01 0.0000000e+00
 2.5662206e-01 2.3275794e-01 0.0000000e+00
 2.7086949e-01 1.1554405e-01 0.0000000e+00
 2.5060848e-01 3.1546092e-01 0.0000000e+00
 2.6555394e-01 1.4941945e-01 0.0000000e+00
 2.4920373e-01 3.4170036e-01 0.0000000e+00
 2.6112713e-01 1.7950091e-01 0.0000000e+00
 2.5010961e-01 3.0285777e-01 0.0000000e+00
 2.6306712e-01 1.5860622e-01 0.0000000e+00
 2.7644250e-01 7.0939763e-02 0.0000000e+00
 2.7223057e-01 9.5621776e-02 0.0000000e+00
 2.5788111e-01 2.0143291e-01 0.0000000e+00
 2.7060554e-01 1.0519784e-01 0.0000000e+00
 2.5649717e-01 2.1287659e-01 0.0000000e+00
[...]
POINT_DATA 971
VECTORS VELOCITY float
1.8836210e-01 -5.8206411e-03 0.0000000e+00
1.8947244e-01 -9.2705511e-03 0.0000000e+00
1.8786021e-01 -2.2470176e-03 0.0000000e+00
1.9114450e-01 -1.2474695e-02 0.0000000e+00
1.8780592e-01 1.3030296e-03 0.0000000e+00
1.9328677e-01 -1.5528325e-02 0.0000000e+00
1.8832253e-01 4.8965818e-03 0.0000000e+00
1.9594631e-01 -1.8243487e-02 0.0000000e+00
1.8938544e-01 8.2881447e-03 0.0000000e+00
1.8526256e-01 -4.9868376e-03 0.0000000e+00
1.8630394e-01 -8.9636521e-03 0.0000000e+00
1.8491553e-01 -9.6669749e-04 0.0000000e+00
1.8799036e-01 -1.2709785e-02 0.0000000e+00
1.9900370e-01 -2.0588276e-02 0.0000000e+00
1.9102875e-01 1.1598506e-02 0.0000000e+00
1.8510285e-01 3.0396671e-03 0.0000000e+00
1.9015941e-01 -1.6196666e-02 0.0000000e+00
1.8587829e-01 6.9884740e-03 0.0000000e+00
1.9285318e-01 -1.9347811e-02 0.0000000e+00
2.0245507e-01 -2.2516084e-02 0.0000000e+00
1.9308521e-01 1.4685240e-02 0.0000000e+00
1.8732473e-01 1.0841609e-02 0.0000000e+00
1.8243346e-01 -7.5762743e-03 0.0000000e+00
1.9591492e-01 -2.2156459e-02 0.0000000e+00
1.8102745e-01 -3.4825284e-03 0.0000000e+00
1.8331825e-01 -1.2399723e-02 0.0000000e+00
2.0615954e-01 -2.3991101e-02 0.0000000e+00
1.8080946e-01 1.2251829e-03 0.0000000e+00
1.8936839e-01 1.4362939e-02 0.0000000e+00
1.8546034e-01 -1.6650445e-02 0.0000000e+00
1.9573871e-01 1.7394733e-02 0.0000000e+00
1.9956958e-01 -2.4579110e-02 0.0000000e+00
1.8148565e-01 5.8784654e-03 0.0000000e+00
1.8823309e-01 -2.0549410e-02 0.0000000e+00
1.8347037e-01 1.0265956e-02 0.0000000e+00
1.9180126e-01 1.7609426e-02 0.0000000e+00
1.9160983e-01 -2.4045287e-02 0.0000000e+00
2.0357019e-01 -2.6472008e-02 0.0000000e+00
2.1009930e-01 -2.5056117e-02 0.0000000e+00
1.9592290e-01 -2.6464374e-02 0.0000000e+00
1.9881293e-01 1.9704304e-02 0.0000000e+00
1.7775131e-01 -8.6646525e-03 0.0000000e+00
1.8471387e-01 1.4541128e-02 0.0000000e+00
1.7962824e-01 -1.5788949e-02 0.0000000e+00
1.7569739e-01 -1.3089976e-03 0.0000000e+00
1.9486441e-01 2.0587225e-02 0.0000000e+00
1.7656637e-01 4.9661291e-03 0.0000000e+00
2.0772050e-01 -2.7899477e-02 0.0000000e+00
1.8248218e-01 -2.1594666e-02 0.0000000e+00
1.8727589e-01 1.8472925e-02 0.0000000e+00
1.9961928e-01 -2.9540229e-02 0.0000000e+00
2.1426739e-01 -2.5642963e-02 0.0000000e+00
1.7895718e-01 1.2083518e-02 0.0000000e+00
1.8699572e-01 -2.6334248e-02 0.0000000e+00
2.0222550e-01 2.1602375e-02 0.0000000e+00
1.9062592e-01 2.1270905e-02 0.0000000e+00
1.9839786e-01 2.3142739e-02 0.0000000e+00
1.9318212e-01 -3.0823671e-02 0.0000000e+00
2.1227077e-01 -2.8798503e-02 0.0000000e+00
2.0427327e-01 -3.1509151e-02 0.0000000e+00
1.7256824e-01 -1.2962633e-02 0.0000000e+00
1.8148720e-01 1.9280341e-02 0.0000000e+00
1.7512194e-01 -2.1389822e-02 0.0000000e+00
2.1854570e-01 -2.5711246e-02 0.0000000e+00
1.6992520e-01 2.5054707e-03 0.0000000e+00
2.0890634e-01 -3.1899595e-02 0.0000000e+00
2.0591325e-01 2.3077607e-02 0.0000000e+00
1.7204341e-01 1.0890093e-02 0.0000000e+00
1.9391610e-01 2.5232402e-02 0.0000000e+00
1.6825072e-01 -4.9177390e-03 0.0000000e+00
1.7997142e-01 -2.8510463e-02 0.0000000e+00
2.0229991e-01 2.5194920e-02 0.0000000e+00
1.8701858e-01 2.4779705e-02 0.0000000e+00
1.9966190e-01 -3.5638476e-02 0.0000000e+00
2.1699258e-01 -2.9134551e-02 0.0000000e+00
1.8653244e-01 -3.3643725e-02 0.0000000e+00
1.7432783e-01 1.8541053e-02 0.0000000e+00
1.9809819e-01 2.8005149e-02 0.0000000e+00
2.2283639e-01 -2.5218902e-02 0.0000000e+00
1.6373807e-01 -1.2208665e-02 0.0000000e+00
2.1421302e-01 -3.3631343e-02 0.0000000e+00
2.0780832e-01 -3.7253112e-02 0.0000000e+00
2.0981057e-01 2.4144047e-02 0.0000000e+00
1.6602199e-01 -2.0960643e-02 0.0000000e+00
1.9308668e-01 -3.9317952e-02 0.0000000e+00
2.0647975e-01 2.6691497e-02 0.0000000e+00
1.7887179e-01 2.6078559e-02 0.0000000e+00
2.2170693e-01 -2.8816247e-02 0.0000000e+00
1.9232614e-01 3.0242035e-02 0.0000000e+00
1.7087028e-01 -3.0103173e-02 0.0000000e+00
1.6474838e-01 1.6463965e-02 0.0000000e+00
1.7803232e-01 -3.7539258e-02 0.0000000e+00
2.0272944e-01 3.0131379e-02 0.0000000e+00
1.5989239e-01 5.6952058e-03 0.0000000e+00
2.1958961e-01 -3.3692281e-02 0.0000000e+00
1.8529700e-01 3.1895928e-02 0.0000000e+00
1.8522503e-01 -4.2524602e-02 0.0000000e+00
2.0119035e-01 -4.3353548e-02 0.0000000e+00
1.5512937e-01 -5.7294693e-03 0.0000000e+00
2.2712673e-01 -2.4368333e-02 0.0000000e+00
1.6896607e-01 2.6427322e-02 0.0000000e+00
2.1400546e-01 2.4765885e-02 0.0000000e+00
2.1078111e-01 2.7722228e-02 0.0000000e+00
2.1561723e-01 -3.9009907e-02 0.0000000e+00
1.9800514e-01 3.3969204e-02 0.0000000e+00
1.5462882e-01 -1.8063263e-02 0.0000000e+00
2.2627547e-01 -2.8054691e-02 0.0000000e+00
1.7675085e-01 3.2696054e-02 0.0000000e+00
2.0991220e-01 -4.4364510e-02 0.0000000e+00
1.5916536e-01 -3.0578835e-02 0.0000000e+00
2.0765173e-01 3.1622224e-02 0.0000000e+00
1.6712424e-01 -4.1263439e-02 0.0000000e+00
2.2489156e-01 -3.3104828e-02 0.0000000e+00
1.9117596e-01 3.7648838e-02 0.0000000e+00
1.5203088e-01 1.5788684e-02 0.0000000e+00
1.7760938e-01 -4.8829823e-02 0.0000000e+00
1.4601007e-01 4.3981636e-03 0.0000000e+00
2.3127891e-01 -2.2953058e-02 0.0000000e+00
2.0455939e-01 3.5967371e-02 0.0000000e+00
1.9055005e-01 -5.2390746e-02 0.0000000e+00
2.2292306e-01 -3.9244999e-02 0.0000000e+00
2.1546468e-01 2.8190306e-02 0.0000000e+00
1.7918108e-01 4.0083973e-02 0.0000000e+00
2.1834062e-01 2.4799076e-02 0.0000000e+00
2.0383595e-01 -5.2236651e-02 0.0000000e+00
1.4232689e-01 -1.0935510e-02 0.0000000e+00
2.3095902e-01 -2.6763864e-02 0.0000000e+00
2.1284183e-01 3.1655943e-02 0.0000000e+00
2.2928072e-01 -3.1184617e-02 0.0000000e+00
1.5465583e-01 2.8591517e-02 0.0000000e+00
1.6636968e-01 3.7965270e-02 0.0000000e+00
2.1855484e-01 -4.6233025e-02 0.0000000e+00
1.4414538e-01 -2.8272124e-02 0.0000000e+00
1.9923470e-01 4.1135154e-02 0.0000000e+00
1.5230623e-01 -4.4111423e-02 0.0000000e+00
2.1499313e-01 -5.2505807e-02 0.0000000e+00
1.6500635e-01 -5.5998145e-02 0.0000000e+00
1.9208960e-01 4.5575000e-02 0.0000000e+00
1.3864899e-01 1.9683110e-02 0.0000000e+00
1.8047061e-01 -6.3062127e-02 0.0000000e+00
2.3098729e-01 -3.6815729e-02 0.0000000e+00
2.1244707e-01 3.7141660e-02 0.0000000e+00
2.2023830e-01 2.8112324e-02 0.0000000e+00
2.3538484e-01 -2.1027243e-02 0.0000000e+00
1.2970741e-01 1.9987380e-03 0.0000000e+00
1.8284882e-01 4.9417132e-02 0.0000000e+00
1.9589664e-01 -6.5216464e-02 0.0000000e+00
2.3549080e-01 -2.4997604e-02 0.0000000e+00
2.2264216e-01 2.4325425e-02 0.0000000e+00
2.1779691e-01 3.2841502e-02 0.0000000e+00
2.0862787e-01 -6.1279262e-02 0.0000000e+00
2.2817303e-01 -4.6033055e-02 0.0000000e+00
1.2734609e-01 -1.9525980e-02 0.0000000e+00
2.3497077e-01 -3.0422435e-02 0.0000000e+00
2.0811599e-01 4.3054389e-02 0.0000000e+00
1.6894504e-01 5.0694025e-02 0.0000000e+00
2.0068367e-01 4.8462916e-02 0.0000000e+00
1.3276257e-01 -4.3707604e-02 0.0000000e+00
1.5266359e-01 4.7223732e-02 0.0000000e+00
1.4753132e-01 -6.2970160e-02 0.0000000e+00
1.3706938e-01 3.8301869e-02 0.0000000e+00
1.6677097e-01 -7.4902049e-02 0.0000000e+00
1.1736480e-01 2.2269641e-02 0.0000000e+00
2.2224303e-01 -6.0774143e-02 0.0000000e+00
2.2499693e-01 2.7435193e-02 0.0000000e+00
1.9489218e-01 5.6760780e-02 0.0000000e+00
1.8771923e-01 -8.0111661e-02 0.0000000e+00
2.3674638e-01 -4.2590257e-02 0.0000000e+00
2.3902362e-01 -1.8881930e-02 0.0000000e+00
2.2311340e-01 3.2577739e-02 0.0000000e+00
2.3968779e-01 -2.2628650e-02 0.0000000e+00
2.0738420e-01 -7.4942296e-02 0.0000000e+00
2.3879158e-01 -3.4759177e-02 0.0000000e+00
2.2704099e-01 2.3462379e-02 0.0000000e+00
2.3997495e-01 -2.7986921e-02 0.0000000e+00
1.7917366e-01 6.3181393e-02 0.0000000e+00
2.2062508e-01 3.8605755e-02 0.0000000e+00
1.0201473e-01 -4.4569914e-03 0.0000000e+00
2.1655360e-01 4.5183236e-02 0.0000000e+00
1.0804829e-01 -3.9106165e-02 0.0000000e+00
1.2299942e-01 -6.4706560e-02 0.0000000e+00
2.1029166e-01 5.2700361e-02 0.0000000e+00
1.6107404e-01 6.5373807e-02 0.0000000e+00
1.3764472e-01 6.2494166e-02 0.0000000e+00
1.4584977e-01 -8.8220465e-02 0.0000000e+00
2.3612261e-01 -5.5230818e-02 0.0000000e+00
1.1328805e-01 5.0277714e-02 0.0000000e+00
2.0552940e-01 6.3357079e-02 0.0000000e+00
1.7195364e-01 -9.9620452e-02 0.0000000e+00
2.2962126e-01 2.6297211e-02 0.0000000e+00
2.2854255e-01 3.1572098e-02 0.0000000e+00
2.4440346e-01 -2.5009468e-02 0.0000000e+00
2.4343230e-01 -1.9850306e-02 0.0000000e+00
2.4246714e-01 -1.6234432e-02 0.0000000e+00
1.9277135e-01 7.2764960e-02 0.0000000e+00
2.0240369e-01 -9.6350020e-02 0.0000000e+00
2.2785817e-01 3.7176702e-02 0.0000000e+00
2.4506736e-01 -3.9466049e-02 0.0000000e+00
2.4554243e-01 -3.1309517e-02 0.0000000e+00
2.3127391e-01 2.2027975e-02 0.0000000e+00
2.2262350e-01 -8.4727792e-02 0.0000000e+00
1.7651874e-01 8.0918115e-02 0.0000000e+00
2.2599913e-01 4.5051453e-02 0.0000000e+00
2.3756348e-01 -7.2252669e-02 0.0000000e+00
5.9286522e-02 -3.0156713e-02 0.0000000e+00
1.4841723e-01 9.0116869e-02 0.0000000e+00
8.7032711e-02 -8.5489707e-02 0.0000000e+00
6.5747157e-02 3.4754779e-02 0.0000000e+00
2.4660603e-01 -6.2011130e-02 0.0000000e+00
2.3342267e-01 2.8972970e-02 0.0000000e+00
1.8750707e-01 -1.2044717e-01 0.0000000e+00
2.2301955e-01 5.9455705e-02 0.0000000e+00
2.3424347e-01 2.4585702e-02 0.0000000e+00
2.5013113e-01 -4.9382088e-02 0.0000000e+00
2.1246110e-01 7.7042059e-02 0.0000000e+00
2.4840226e-01 -2.1592350e-02 0.0000000e+00
2.4669277e-01 -1.6778373e-02 0.0000000e+00
1.3700880e-01 -1.2953809e-01 0.0000000e+00
2.3083885e-01 5.0228687e-02 0.0000000e+00
2.5070960e-01 -2.6538200e-02 0.0000000e+00
1.9578388e-01 9.2126365e-02 0.0000000e+00
2.4550164e-01 -1.3429494e-02 0.0000000e+00
9.3396810e-02 8.9301137e-02 0.0000000e+00
2.5375620e-01 -3.5846527e-02 0.0000000e+00
1.7485132e-01 1.0587808e-01 0.0000000e+00
2.3541463e-01 2.0180712e-02 0.0000000e+00
2.3571098e-01 3.4241783e-02 0.0000000e+00
2.7323381e-02 -8.1040097e-03 0.0000000e+00
2.3475835e-01 4.1639871e-02 0.0000000e+00
4.3137459e-02 -6.6741000e-02 0.0000000e+00
2.5617390e-02 -3.2994842e-02 0.0000000e+00
2.2354481e-01 -1.1908391e-01 0.0000000e+00
2.4495788e-01 -9.4589831e-02 0.0000000e+00
2.4776057e-02 2.4751835e-02 0.0000000e+00
5.1724346e-02 -8.6331596e-02 0.0000000e+00
8.2273662e-02 -1.1696979e-01 0.0000000e+00
2.5642801e-01 -7.5928953e-02 0.0000000e+00
2.9491069e-02 4.6060795e-02 0.0000000e+00
4.9150267e-02 7.9645685e-02 0.0000000e+00
2.3852773e-01 2.7795409e-02 0.0000000e+00
2.6150384e-01 -5.9584160e-02 0.0000000e+00
6.1070754e-03 -1.2457651e-02 0.0000000e+00
9.8606027e-03 -2.6426176e-02 0.0000000e+00
2.2880061e-01 7.7048975e-02 0.0000000e+00
1.2891050e-01 1.2856089e-01 0.0000000e+00
5.4250605e-03 3.9065794e-03 0.0000000e+00
9.8512065e-02 -1.3149215e-01 0.0000000e+00
1.7075827e-02 -4.1340603e-02 0.0000000e+00
2.5103520e-01 -1.7041650e-02 0.0000000e+00
2.3855201e-01 2.2439696e-02 0.0000000e+00
1.9129158e-01 -1.5405524e-01 0.0000000e+00
2.3653308e-01 5.9922501e-02 0.0000000e+00
7.7066599e-03 1.9007225e-02 0.0000000e+00
2.6186349e-01 -4.5345328e-02 0.0000000e+00
2.2062854e-01 9.6218127e-02 0.0000000e+00
6.9497659e-02 1.0557456e-01 0.0000000e+00
2.0333316e-01 1.1316624e-01 0.0000000e+00
2.7666646e-02 -5.4069173e-02 0.0000000e+00
1.1404290e-03 -4.3796097e-03 0.0000000e+00
2.5414585e-03 -9.3182703e-03 0.0000000e+00
2.4963650e-01 -1.3249093e-02 0.0000000e+00
9.1995662e-04 1.2774512e-03 0.0000000e+00
2.5814528e-01 -2.7145913e-02 0.0000000e+00
4.9709110e-03 -1.4473384e-02 0.0000000e+00
2.4111272e-01 4.9139837e-02 0.0000000e+00
1.3117173e-02 3.3544036e-02 0.0000000e+00
1.3410553e-01 -1.4809806e-01 0.0000000e+00
0.0000000e+00 0.0000000e+00 0.0000000e+00
0.0000000e+00 0.0000000e+00 0.0000000e+00
2.6216159e-01 -3.5586241e-02 0.0000000e+00
2.5503323e-01 -1.2088532e-01 0.0000000e+00
1.7028151e-03 6.6675630e-03 0.0000000e+00
0.0000000e+00 0.0000000e+00 0.0000000e+00
2.4796369e-01 -1.0253721e-02 0.0000000e+00
3.9546300e-02 -6.6829994e-02 0.0000000e+00
0.0000000e+00 0.0000000e+00 0.0000000e+00
8.6997581e-03 -1.9027303e-02 0.0000000e+00
2.5553789e-01 -2.0269046e-02 0.0000000e+00
0.0000000e+00 0.0000000e+00 0.0000000e+00
2.3913498e-01 1.8038074e-02 0.0000000e+00
3.5717152e-03 1.1853158e-02 0.0000000e+00
2.4331525e-01 3.9480377e-02 0.0000000e+00
0.0000000e+00 0.0000000e+00 0.0000000e+00
2.1812283e-02 4.8014566e-02 0.0000000e+00
2.7069396e-01 -9.4340042e-02 0.0000000e+00
1.2928608e-02 -2.3689423e-02 0.0000000e+00
8.6943043e-02 1.2301254e-01 0.0000000e+00
0.0000000e+00 0.0000000e+00 0.0000000e+00
5.3236631e-02 -7.3536402e-02 0.0000000e+00
0.0000000e+00 0.0000000e+00 0.0000000e+00
6.6553729e-03 1.7028000e-02 0.0000000e+00
1.5031434e-01 -1.4577817e-01 0.0000000e+00
2.4377335e-01 3.1540285e-02 0.0000000e+00
2.7657107e-01 -6.9966926e-02 0.0000000e+00
3.2147153e-02 6.0990590e-02 0.0000000e+00
0.0000000e+00 0.0000000e+00 0.0000000e+00
1.7880557e-02 -2.5987945e-02 0.0000000e+00
2.4312332e-01 2.5162830e-02 0.0000000e+00
1.2079334e-01 1.4168012e-01 0.0000000e+00
2.4439338e-01 7.2447833e-02 0.0000000e+00
1.9087169e-01 1.4657234e-01 0.0000000e+00
2.4505053e-01 -1.5080547e-01 0.0000000e+00
0.0000000e+00 0.0000000e+00 0.0000000e+00
6.8086077e-02 -7.9387841e-02 0.0000000e+00
1.0295993e-02 2.1314273e-02 0.0000000e+00
2.7561037e-01 -5.1427110e-02 0.0000000e+00
2.5453429e-01 -1.3712307e-02 0.0000000e+00
1.9159921e-01 -1.5362728e-01 0.0000000e+00
0.0000000e+00 0.0000000e+00 0.0000000e+00
2.4244514e-01 1.9972971e-02 0.0000000e+00
2.3150218e-02 -2.8145522e-02 0.0000000e+00
4.5480850e-02 6.8570720e-02 0.0000000e+00
2.3839060e-01 1.1558397e-01 0.0000000e+00
2.7258356e-01 -3.6945539e-02 0.0000000e+00
0.0000000e+00 0.0000000e+00 0.0000000e+00
2.5064795e-01 5.9875707e-02 0.0000000e+00
2.5195416e-01 -9.5311601e-03 0.0000000e+00
2.6753708e-01 -2.7333009e-02 0.0000000e+00
8.5001512e-02 -7.9788404e-02 0.0000000e+00
2.4979094e-01 9.3099264e-02 0.0000000e+00
1.5057375e-02 2.4440160e-02 0.0000000e+00
0.0000000e+00 0.0000000e+00 0.0000000e+00
1.4392609e-01 1.4722190e-01 0.0000000e+00
2.4973965e-01 -6.8930806e-03 0.0000000e+00
2.9066559e-02 -2.8210244e-02 0.0000000e+00
6.0173921e-02 7.7438706e-02 0.0000000e+00
2.1083351e-01 -1.4360586e-01 0.0000000e+00
0.0000000e+00 0.0000000e+00 0.0000000e+00
2.4268114e-01 1.5530354e-02 0.0000000e+00
2.9908235e-01 -8.2989992e-02 0.0000000e+00
2.5129804e-01 3.4679772e-02 0.0000000e+00
2.0118341e-02 2.7176980e-02 0.0000000e+00
1.0164716e-01 -8.0377035e-02 0.0000000e+00
2.6585272e-01 -1.9878785e-02 0.0000000e+00
2.5525219e-01 4.7627982e-02 0.0000000e+00
2.4630666e-01 2.1527106e-02 0.0000000e+00
0.0000000e+00 0.0000000e+00 0.0000000e+00
2.6058087e-01 -1.3961519e-02 0.0000000e+00
1.8313507e-01 1.5623745e-01 0.0000000e+00
2.6054847e-01 7.3954774e-02 0.0000000e+00
3.5258593e-02 -2.8784391e-02 0.0000000e+00
2.9437588e-01 -5.7518307e-02 0.0000000e+00
2.9916363e-01 -1.2522284e-01 0.0000000e+00
0.0000000e+00 0.0000000e+00 0.0000000e+00
7.6753902e-02 7.9451153e-02 0.0000000e+00
2.5003208e-01 2.5700455e-02 0.0000000e+00
2.5687679e-01 -9.0377134e-03 0.0000000e+00
2.5857339e-01 -1.3764128e-01 0.0000000e+00
2.8733224e-01 -3.9208736e-02 0.0000000e+00
2.6224561e-02 2.8444950e-02 0.0000000e+00
1.1941914e-01 -7.5640622e-02 0.0000000e+00
2.4609452e-01 1.6995123e-02 0.0000000e+00
0.0000000e+00 0.0000000e+00 0.0000000e+00
2.5382875e-01 1.4698865e-01 0.0000000e+00
2.5791547e-01 3.6582974e-02 0.0000000e+00
4.1538485e-02 -2.7072676e-02 0.0000000e+00
2.5351949e-01 -5.5261333e-03 0.0000000e+00
0.0000000e+00 0.0000000e+00 0.0000000e+00
2.6619282e-01 5.7570061e-02 0.0000000e+00
2.7554200e-01 9.9916752e-02 0.0000000e+00
9.3567815e-02 8.2791285e-02 0.0000000e+00
2.0504291e-01 1.4776002e-01 0.0000000e+00
3.2026664e-02 2.9261734e-02 0.0000000e+00
2.7984686e-01 -2.2762282e-02 0.0000000e+00
2.5097902e-01 -3.3525794e-03 0.0000000e+00
2.6893369e-01 -1.1876996e-01 0.0000000e+00
2.6684032e-01 -1.1534076e-02 0.0000000e+00
0.0000000e+00 0.0000000e+00 0.0000000e+00
1.3495183e-01 -7.0337369e-02 0.0000000e+00
2.4580015e-01 1.2739357e-02 0.0000000e+00
4.7443360e-02 -2.5373256e-02 0.0000000e+00
2.5723575e-01 2.7591262e-02 0.0000000e+00
0.0000000e+00 0.0000000e+00 0.0000000e+00
2.5093612e-01 1.8455646e-02 0.0000000e+00
2.6739581e-01 4.2536070e-02 0.0000000e+00
1.1042354e-01 7.8141381e-02 0.0000000e+00
3.0726892e-01 -3.9802289e-02 0.0000000e+00
2.4556776e-01 1.4531908e-01 0.0000000e+00
2.8128380e-01 6.8711906e-02 0.0000000e+00
2.6314358e-01 -6.3324497e-03 0.0000000e+00
3.8408765e-02 2.8147515e-02 0.0000000e+00
3.2802909e-01 -5.7089114e-02 0.0000000e+00
2.7537815e-01 -1.2088047e-02 0.0000000e+00
0.0000000e+00 0.0000000e+00 0.0000000e+00
1.5074029e-01 -5.8866240e-02 0.0000000e+00
3.1056592e-01 -1.0021452e-01 0.0000000e+00
3.4327099e-01 -8.3586098e-02 0.0000000e+00
2.4923647e-01 1.3730755e-02 0.0000000e+00
2.9559015e-01 -2.3690698e-02 0.0000000e+00
5.2897362e-02 -2.1203393e-02 0.0000000e+00
2.5379703e-01 -1.7394451e-03 0.0000000e+00
0.0000000e+00 0.0000000e+00 0.0000000e+00
2.5582601e-01 2.0342188e-02 0.0000000e+00
2.6611643e-01 3.0815951e-02 0.0000000e+00
2.5828043e-01 -2.0981614e-03 0.0000000e+00
1.2753114e-01 7.4700904e-02 0.0000000e+00
2.8139585e-01 4.8750273e-02 0.0000000e+00
4.4593830e-02 2.6826571e-02 0.0000000e+00
3.0019129e-01 8.0947444e-02 0.0000000e+00
0.0000000e+00 0.0000000e+00 0.0000000e+00
3.1323041e-01 1.1579999e-01 0.0000000e+00
2.6306308e-01 1.2276027e-01 0.0000000e+00
1.6258009e-01 -4.8194087e-02 0.0000000e+00
2.8732012e-01 -1.0798004e-02 0.0000000e+00
2.5146019e-01 4.0024521e-04 0.0000000e+00
2.7025342e-01 -4.0991130e-03 0.0000000e+00
3.1117242e-01 -7.3935178e-02 0.0000000e+00
5.7759217e-02 -1.7536263e-02 0.0000000e+00
0.0000000e+00 0.0000000e+00 0.0000000e+00
2.4835205e-01 9.7636400e-03 0.0000000e+00
3.1160464e-01 -1.9856554e-02 0.0000000e+00
2.5404277e-01 1.4389231e-02 0.0000000e+00
2.6323514e-01 2.1723988e-02 0.0000000e+00
1.4209040e-01 6.5467244e-02 0.0000000e+00
2.7770814e-01 3.3566839e-02 0.0000000e+00
4.9826059e-02 2.3631622e-02 0.0000000e+00
3.0070934e-01 5.3758222e-02 0.0000000e+00
0.0000000e+00 0.0000000e+00 0.0000000e+00
2.7994676e-01 1.0960935e-01 0.0000000e+00
3.3355952e-01 -2.3556821e-02 0.0000000e+00
2.6432133e-01 9.6202207e-04 0.0000000e+00
1.7450438e-01 -3.1518180e-02 0.0000000e+00
2.7940745e-01 -1.6394716e-03 0.0000000e+00
2.5506274e-01 2.2764248e-03 0.0000000e+00
2.5171488e-01 1.0167254e-02 0.0000000e+00
6.1708895e-02 -1.1549198e-02 0.0000000e+00
3.0182970e-01 -6.5693239e-03 0.0000000e+00
0.0000000e+00 0.0000000e+00 0.0000000e+00
3.4306239e-01 -4.5985515e-02 0.0000000e+00
2.5993946e-01 1.4820659e-02 0.0000000e+00
2.7286761e-01 2.2451306e-02 0.0000000e+00
1.5647713e-01 5.3651169e-02 0.0000000e+00
3.7016299e-01 -2.7580970e-02 0.0000000e+00
2.9319429e-01 3.5014377e-02 0.0000000e+00
5.5513082e-02 1.9589617e-02 0.0000000e+00
0.0000000e+00 0.0000000e+00 0.0000000e+00
3.2671583e-01 5.7531345e-02 0.0000000e+00
2.7154995e-01 4.0348563e-03 0.0000000e+00
3.2098409e-01 8.8780826e-02 0.0000000e+00
2.5121050e-01 4.3077411e-03 0.0000000e+00
1.8081100e-01 -1.6162701e-02 0.0000000e+00
6.3657427e-02 -6.4641765e-03 0.0000000e+00
2.9057831e-01 3.3166467e-03 0.0000000e+00
2.5642522e-01 1.0085703e-02 0.0000000e+00
2.5947936e-01 5.0977631e-03 0.0000000e+00
0.0000000e+00 0.0000000e+00 0.0000000e+00
3.2114678e-01 -2.6735184e-04 0.0000000e+00
2.5024259e-01 6.5797499e-03 0.0000000e+00
3.3642672e-01 -1.8270396e-02 0.0000000e+00
2.6749136e-01 1.3802082e-02 0.0000000e+00
2.8496654e-01 2.1709189e-02 0.0000000e+00
1.6710335e-01 4.1915194e-02 0.0000000e+00
5.8966663e-02 1.5156182e-02 0.0000000e+00
0.0000000e+00 0.0000000e+00 0.0000000e+00
3.1386950e-01 3.3605960e-02 0.0000000e+00
3.5603071e-01 6.2600503e-02 0.0000000e+00
2.6467218e-01 8.0879370e-03 0.0000000e+00
2.5345653e-01 6.4123917e-03 0.0000000e+00
2.7986099e-01 9.5519477e-03 0.0000000e+00
2.5471650e-01 7.1476579e-03 0.0000000e+00
1.9375992e-01 4.7853197e-03 0.0000000e+00
3.1740695e-01 5.8706853e-02 0.0000000e+00
7.0252728e-02 1.5444860e-03 0.0000000e+00
3.0424456e-01 1.0562481e-02 0.0000000e+00
0.0000000e+00 0.0000000e+00 0.0000000e+00
3.5383578e-01 1.3446302e-02 0.0000000e+00
2.6219635e-01 8.4950846e-03 0.0000000e+00
2.7696935e-01 1.2492328e-02 0.0000000e+00
3.7638178e-01 2.0824686e-02 0.0000000e+00
3.0024666e-01 1.8121780e-02 0.0000000e+00