# vtk DataFile Version 4.0
vtk output
ASCII
DATASET UNSTRUCTURED_GRID
POINTS 94 float
 3.4924667e-01 2.1501435e-01 0.0000000e+00
 3.4791054e-01 2.2494940e-01 0.0000000e+00
 3.4991623e-01 2.0501225e-01 0.0000000e+00
 3.4591380e-01 2.3477302e-01 0.0000000e+00
 3.4991623e-01 1.9498775e-01 0.0000000e+00
 3.4326537e-01 2.4444134e-01 0.0000000e+00
 3.4924667e-01 1.8498565e-01 0.0000000e+00
 3.3997709e-01 2.5391117e-01 0.0000000e+00
 3.4791054e-01 1.7505060e-01 0.0000000e+00
 3.3606364e-01 2.6314021e-01 0.0000000e+00
 3.4591380e-01 1.6522698e-01 0.0000000e+00
 3.3154249e-01 2.7208726e-01 0.0000000e+00
 3.4326537e-01 1.5555866e-01 0.0000000e+00
 3.2643384e-01 2.8071235e-01 0.0000000e+00
 3.3997709e-01 1.4608883e-01 0.0000000e+00
 3.2076051e-01 2.8897696e-01 0.0000000e+00
 3.3606364e-01 1.3685979e-01 0.0000000e+00
 3.1454783e-01 2.9684418e-01 0.0000000e+00
 3.3154249e-01 1.2791274e-01 0.0000000e+00
 3.0782355e-01 3.0427886e-01 0.0000000e+00
 3.2643384e-01 1.1928765e-01 0.0000000e+00
 3.0061771e-01 3.1124782e-01 0.0000000e+00
 3.2076051e-01 1.1102304e-01 0.0000000e+00
 2.9296248e-01 3.1771991e-01 0.0000000e+00
 3.1454783e-01 1.0315582e-01 0.0000000e+00
 2.8489206e-01 3.2366623e-01 0.0000000e+00
 3.0782355e-01 9.5721136e-02 0.0000000e+00
 2.7644250e-01 3.2906024e-01 0.0000000e+00
 3.0061771e-01 8.8752184e-02 0.0000000e+00
 2.6765152e-01 3.3387783e-01 0.0000000e+00
 2.9296248e-01 8.2280092e-02 0.0000000e+00
 2.5855839e-01 3.3809748e-01 0.0000000e+00
 2.8489206e-01 7.6333766e-02 0.0000000e+00
 2.4920373e-01 3.4170036e-01 0.0000000e+00
 2.7644250e-01 7.0939763e-02 0.0000000e+00
 2.3962931e-01 3.4467038e-01 0.0000000e+00
 2.6765152e-01 6.6122175e-02 0.0000000e+00
 2.2987790e-01 3.4699426e-01 0.0000000e+00
 2.5855839e-01 6.1902517e-02 0.0000000e+00
 2.1999304e-01 3.4866162e-01 0.0000000e+00
 2.4920373e-01 5.8299636e-02 0.0000000e+00
 2.1001890e-01 3.4966503e-01 0.0000000e+00
 2.3962931e-01 5.5329624e-02 0.0000000e+00
 2.0000000e-01 3.5000000e-01 0.0000000e+00
 2.2987790e-01 5.3005744e-02 0.0000000e+00
 1.8998110e-01 3.4966503e-01 0.0000000e+00
 2.1999304e-01 5.1338377e-02 0.0000000e+00
 1.8000696e-01 3.4866162e-01 0.0000000e+00
 2.1001889e-01 5.0334968e-02 0.0000000e+00
 1.7012210e-01 3.4699426e-01 0.0000000e+00
 2.0000000e-01 5.0000000e-02 0.0000000e+00
 1.6037069e-01 3.4467038e-01 0.0000000e+00
 1.8998110e-01 5.0334968e-02 0.0000000e+00
 1.5079627e-01 3.4170036e-01 0.0000000e+00
 1.8000696e-01 5.1338377e-02 0.0000000e+00
 1.4144161e-01 3.3809748e-01 0.0000000e+00
 1.7012210e-01 5.3005744e-02 0.0000000e+00
 1.3234848e-01 3.3387783e-01 0.0000000e+00
 1.6037069e-01 5.5329624e-02 0.0000000e+00
 1.2355750e-01 3.2906024e-01 0.0000000e+00
 1.5079627e-01 5.8299636e-02 0.0000000e+00
 1.1510794e-01 3.2366623e-01 0.0000000e+00
 1.4144161e-01 6.1902517e-02 0.0000000e+00
 1.0703752e-01 3.1771991e-01 0.0000000e+00
 1.3234848e-01 6.6122175e-02 0.0000000e+00
 9.9382290e-02 3.1124782e-01 0.0000000e+00
 1.2355750e-01 7.0939763e-02 0.0000000e+00
 9.2176447e-02 3.0427886e-01 0.0000000e+00
 1.1510794e-01 7.6333766e-02 0.0000000e+00
 8.5452171e-02 2.9684418e-01 0.0000000e+00
 1.0703752e-01 8.2280092e-02 0.0000000e+00
 7.9239492e-02 2.8897696e-01 0.0000000e+00
 9.9382290e-02 8.8752184e-02 0.0000000e+00
 7.3566159e-02 2.8071235e-01 0.0000000e+00
 9.2176447e-02 9.5721136e-02 0.0000000e+00
 6.8457511e-02 2.7208726e-01 0.0000000e+00
 8.5452170e-02 1.0315582e-01 0.0000000e+00
 6.3936363e-02 2.6314021e-01 0.0000000e+00
 7.9239492e-02 1.1102304e-01 0.0000000e+00
 6.0022908e-02 2.5391117e-01 0.0000000e+00
 7.3566159e-02 1.1928765e-01 0.0000000e+00
 5.6734625e-02 2.4444134e-01 0.0000000e+00
 6.8457511e-02 1.2791274e-01 0.0000000e+00
 5.4086201e-02 2.3477302e-01 0.0000000e+00
 6.3936363e-02 1.3685979e-01 0.0000000e+00
 5.2089462e-02 2.2494940e-01 0.0000000e+00
 6.0022908e-02 1.4608883e-01 0.0000000e+00
 5.0753328e-02 2.1501435e-01 0.0000000e+00
 5.6734625e-02 1.5555866e-01 0.0000000e+00
 5.0083765e-02 2.0501225e-01 0.0000000e+00
 5.4086200e-02 1.6522698e-01 0.0000000e+00
 5.0083765e-02 1.9498775e-01 0.0000000e+00
 5.2089462e-02 1.7505060e-01 0.0000000e+00
 5.0753328e-02 1.8498565e-01 0.0000000e+00
CELLS 94 282
2 46 44
2 93 92
2 64 62
2 30 28
2 76 74
2 78 76
2 80 78
2 74 72
2 14 12
2 92 90
2 91 93
2 89 91
2 85 87
2 54 52
2 87 89
2 73 75
2 69 71
2 1 3
2 75 77
2 55 57
2 51 53
2 43 45
2 61 63
2 34 32
2 86 84
2 77 79
2 81 83
2 53 55
2 4 2
2 44 42
2 50 48
2 71 73
2 49 51
2 18 16
2 70 68
2 16 14
2 59 61
2 17 19
2 33 35
2 48 46
2 36 34
2 37 39
2 90 88
2 24 22
2 83 85
2 63 65
2 66 64
2 60 58
2 65 67
2 52 50
2 82 80
2 40 38
2 38 36
2 68 66
2 47 49
2 88 86
2 32 30
2 20 18
2 26 24
2 79 81
2 22 20
2 12 10
2 8 6
2 6 4
2 2 0
2 56 54
2 0 1
2 3 5
2 5 7
2 7 9
2 13 15
2 9 11
2 11 13
2 15 17
2 42 40
2 21 23
2 23 25
2 84 82
2 25 27
2 27 29
2 29 31
2 31 33
2 10 8
2 35 37
2 39 41
2 41 43
2 58 56
2 72 70
2 67 69
2 62 60
2 28 26
2 19 21
2 45 47
2 57 59
CELL_TYPES 94
3
3
3
3
3
3
3
3
3
3
3
3
3
3
3
3
3
3
3
3
3
3
3
3
3
3
3
3
3
3
3
3
3
3
3
3
3
3
3
3
3
3
3
3
3
3
3
3
3
3
3
3
3
3
3
3
3
3
3
3
3
3
3
3
3
3
3
3
3
3
3
3
3
3
3
3
3
3
3
3
3
3
3
3
3
3
3
3
3
3
3
3
3
3
POINT_DATA 94
VECTORS VELOCITY float
1.8836210e-01 -5.8206411e-03 0.0000000e+00
1.8947244e-01 -9.2705511e-03 0.0000000e+00
1.8786021e-01 -2.2470176e-03 0.0000000e+00
1.9114450e-01 -1.2474695e-02 0.0000000e+00
1.8780592e-01 1.3030296e-03 0.0000000e+00
1.9328677e-01 -1.5528325e-02 0.0000000e+00
1.8832253e-01 4.8965818e-03 0.0000000e+00
1.9594631e-01 -1.8243487e-02 0.0000000e+00
1.8938544e-01 8.2881447e-03 0.0000000e+00
1.9900370e-01 -2.0588276e-02 0.0000000e+00
1.9102875e-01 1.1598506e-02 0.0000000e+00
2.0245507e-01 -2.2516084e-02 0.0000000e+00
1.9308521e-01 1.4685240e-02 0.0000000e+00
2.0615954e-01 -2.3991101e-02 0.0000000e+00
1.9573871e-01 1.7394733e-02 0.0000000e+00
2.1009930e-01 -2.5056117e-02 0.0000000e+00
1.9881293e-01 1.9704304e-02 0.0000000e+00
2.1426739e-01 -2.5642963e-02 0.0000000e+00
2.0222550e-01 2.1602375e-02 0.0000000e+00
2.1854570e-01 -2.5711246e-02 0.0000000e+00
2.0591325e-01 2.3077607e-02 0.0000000e+00
2.2283639e-01 -2.5218902e-02 0.0000000e+00
2.0981057e-01 2.4144047e-02 0.0000000e+00
2.2712673e-01 -2.4368333e-02 0.0000000e+00
2.1400546e-01 2.4765885e-02 0.0000000e+00
2.3127891e-01 -2.2953058e-02 0.0000000e+00
2.1834062e-01 2.4799076e-02 0.0000000e+00
2.3538484e-01 -2.1027243e-02 0.0000000e+00
2.2264216e-01 2.4325425e-02 0.0000000e+00
2.3902362e-01 -1.8881930e-02 0.0000000e+00
2.2704099e-01 2.3462379e-02 0.0000000e+00
2.4246714e-01 -1.6234432e-02 0.0000000e+00
2.3127391e-01 2.2027975e-02 0.0000000e+00
2.4550164e-01 -1.3429494e-02 0.0000000e+00
2.3541463e-01 2.0180712e-02 0.0000000e+00
2.4796369e-01 -1.0253721e-02 0.0000000e+00
2.3913498e-01 1.8038074e-02 0.0000000e+00
2.4973965e-01 -6.8930806e-03 0.0000000e+00
2.4268114e-01 1.5530354e-02 0.0000000e+00
2.5097902e-01 -3.3525794e-03 0.0000000e+00
2.4580015e-01 1.2739357e-02 0.0000000e+00
2.5146019e-01 4.0024521e-04 0.0000000e+00
2.4835205e-01 9.7636400e-03 0.0000000e+00
2.5121050e-01 4.3077411e-03 0.0000000e+00
2.5024259e-01 6.5797499e-03 0.0000000e+00
2.5021986e-01 8.3807968e-03 0.0000000e+00
2.5145723e-01 3.2587885e-03 0.0000000e+00
2.4849047e-01 1.2631860e-02 0.0000000e+00
2.5197191e-01 -2.4121359e-04 0.0000000e+00
2.4604494e-01 1.6956882e-02 0.0000000e+00
2.5161508e-01 -3.9099871e-03 0.0000000e+00
2.4314106e-01 2.1468007e-02 0.0000000e+00
2.5041432e-01 -7.6473777e-03 0.0000000e+00
2.3976333e-01 2.6140011e-02 0.0000000e+00
2.4845065e-01 -1.1573609e-02 0.0000000e+00
2.3606071e-01 3.0951067e-02 0.0000000e+00
2.4581744e-01 -1.5697688e-02 0.0000000e+00
2.3229637e-01 3.5956228e-02 0.0000000e+00
2.4257138e-01 -2.0040069e-02 0.0000000e+00
2.2871830e-01 4.0937806e-02 0.0000000e+00
2.3876478e-01 -2.4614017e-02 0.0000000e+00
2.2539625e-01 4.5924631e-02 0.0000000e+00
2.3463848e-01 -2.9420116e-02 0.0000000e+00
2.2265290e-01 5.0786554e-02 0.0000000e+00
2.3041094e-01 -3.4430272e-02 0.0000000e+00
2.2076686e-01 5.5099068e-02 0.0000000e+00
2.2629548e-01 -3.9571122e-02 0.0000000e+00
2.1977562e-01 5.8850396e-02 0.0000000e+00
2.2245719e-01 -4.4756190e-02 0.0000000e+00
2.1986302e-01 6.1540029e-02 0.0000000e+00
2.1920278e-01 -4.9926182e-02 0.0000000e+00
2.2105583e-01 6.2980656e-02 0.0000000e+00
2.1681017e-01 -5.4705869e-02 0.0000000e+00
2.2321750e-01 6.2954643e-02 0.0000000e+00
2.1544461e-01 -5.9105689e-02 0.0000000e+00
2.2614866e-01 6.1272688e-02 0.0000000e+00
2.1521629e-01 -6.2580615e-02 0.0000000e+00
2.2958525e-01 5.7778089e-02 0.0000000e+00
2.1613448e-01 -6.4860834e-02 0.0000000e+00
2.3323341e-01 5.2374142e-02 0.0000000e+00
2.1816792e-01 -6.5696444e-02 0.0000000e+00
2.3681581e-01 4.5080545e-02 0.0000000e+00
2.2118673e-01 -6.4879093e-02 0.0000000e+00
2.4005898e-01 3.5994332e-02 0.0000000e+00
2.2489065e-01 -6.2266283e-02 0.0000000e+00
2.4282271e-01 2.5653557e-02 0.0000000e+00
2.2896189e-01 -5.7705203e-02 0.0000000e+00
2.4457577e-01 1.4228942e-02 0.0000000e+00
2.3316560e-01 -5.1128069e-02 0.0000000e+00
2.4520417e-01 2.2052013e-03 0.0000000e+00
2.3711562e-01 -4.2638340e-02 0.0000000e+00
2.4472312e-01 -9.9184381e-03 0.0000000e+00
2.4048599e-01 -3.2802516e-02 0.0000000e+00
2.4313564e-01 -2.1754691e-02 0.0000000e+00
SCALARS PRESSURE float 1
LOOKUP_TABLE default
-1.0923895e+00
-1.0931280e+00
-1.0922069e+00
-1.0944376e+00
-1.0925794e+00
-1.0963044e+00
-1.0935012e+00
-1.0986991e+00
-1.0949768e+00
-1.1016014e+00
-1.0970236e+00
-1.1049674e+00
-1.0996388e+00
-1.1087521e+00
-1.1027651e+00
-1.1129054e+00
-1.1064174e+00
-1.1173968e+00
-1.1105762e+00
-1.1222135e+00
-1.1152221e+00
-1.1272570e+00
-1.1203281e+00
-1.1325409e+00
-1.1258157e+00
-1.1378998e+00
-1.1316540e+00
-1.1433129e+00
-1.1377993e+00
-1.1487586e+00
-1.1441933e+00
-1.1541732e+00
-1.1507241e+00
-1.1595846e+00
-1.1573930e+00
-1.1648501e+00
-1.1641139e+00
-1.1699890e+00
-1.1708202e+00
-1.1750462e+00
-1.1774660e+00
-1.1799768e+00
-1.1840153e+00
-1.1848409e+00
-1.1904210e+00
-1.1897258e+00
-1.1967012e+00
-1.1946996e+00
-1.2028391e+00
-1.1999319e+00
-1.2088582e+00
-1.2054760e+00
-1.2148370e+00
-1.2114677e+00
-1.2207887e+00
-1.2180271e+00
-1.2267858e+00
-1.2250727e+00
-1.2329104e+00
-1.2328095e+00
-1.2392280e+00
-1.2409697e+00
-1.2457489e+00
-1.2496997e+00
-1.2524957e+00
-1.2588598e+00
-1.2595644e+00
-1.2681597e+00
-1.2668419e+00
-1.2774018e+00
-1.2743391e+00
-1.2864206e+00
-1.2819990e+00
-1.2949868e+00
-1.2896968e+00
-1.3029336e+00
-1.2971916e+00
-1.3101244e+00
-1.3043211e+00
-1.3164527e+00
-1.3109592e+00
-1.3218769e+00
-1.3169889e+00
-1.3263793e+00
-1.3222588e+00
-1.3299811e+00
-1.3266742e+00
-1.3326454e+00
-1.3302071e+00
-1.3344094e+00
-1.3328247e+00
-1.3353444e+00
-1.3345727e+00
-1.3354231e+00
SCALARS DISTANCE float 1
LOOKUP_TABLE default
-2.0000000e+02
-2.0000000e+02
-2.0000000e+02
-2.0000000e+02
-2.0000000e+02
-2.0000000e+02
-2.0000000e+02
-2.0000000e+02
-2.0000000e+02
-2.0000000e+02
-2.0000000e+02
-2.0000000e+02
-2.0000000e+02
-2.0000000e+02
-2.0000000e+02
-2.0000000e+02
-2.0000000e+02
-2.0000000e+02
-2.0000000e+02
-2.0000000e+02
-2.0000000e+02
-2.0000000e+02
-2.0000000e+02
-2.0000000e+02
-2.0000000e+02
-2.0000000e+02
-2.0000000e+02
-2.0000000e+02
-2.0000000e+02
-2.0000000e+02
-2.0000000e+02
-2.0000000e+02
-2.0000000e+02
-2.0000000e+02
-2.0000000e+02
-2.0000000e+02
-2.0000000e+02
-2.0000000e+02
-2.0000000e+02
-2.0000000e+02
-2.0000000e+02
-2.0000000e+02
-2.0000000e+02
-2.0000000e+02
-2.0000000e+02
-2.0000000e+02
-2.0000000e+02
-2.0000000e+02
-2.0000000e+02
-2.0000000e+02
-2.0000000e+02
-2.0000000e+02
-2.0000000e+02
-2.0000000e+02
-2.0000000e+02
-2.0000000e+02
-2.0000000e+02
-2.0000000e+02
-2.0000000e+02
-2.0000000e+02
-2.0000000e+02
-2.0000000e+02
-2.0000000e+02
-2.0000000e+02
-2.0000000e+02
-2.0000000e+02
-2.0000000e+02
-2.0000000e+02
-2.0000000e+02
-2.0000000e+02
-2.0000000e+02
-2.0000000e+02
-2.0000000e+02
-2.0000000e+02
-2.0000000e+02
-2.0000000e+02
-2.0000000e+02
-2.0000000e+02
-2.0000000e+02
-2.0000000e+02
-2.0000000e+02
-2.0000000e+02
-2.0000000e+02
-2.0000000e+02
-2.0000000e+02
-2.0000000e+02
-2.0000000e+02
-2.0000000e+02
-2.0000000e+02
-2.0000000e+02
-2.0000000e+02
-2.0000000e+02
-2.0000000e+02
-2.0000000e+02
