# vtk DataFile Version 4.0
vtk output
ASCII
DATASET UNSTRUCTURED_GRID
POINTS 188 float
 3.4924667e-01 2.1501435e-01 0.0000000e+00
 3.4866162e-01 2.1999304e-01 0.0000000e+00
 3.4966503e-01 2.1001890e-01 0.0000000e+00
 3.4791054e-01 2.2494940e-01 0.0000000e+00
 3.4991623e-01 2.0501225e-01 0.0000000e+00
 3.4699426e-01 2.2987790e-01 0.0000000e+00
 3.5000000e-01 2.0000000e-01 0.0000000e+00
 3.4591380e-01 2.3477302e-01 0.0000000e+00
 3.4991623e-01 1.9498775e-01 0.0000000e+00
 3.4467038e-01 2.3962931e-01 0.0000000e+00
 3.4966503e-01 1.8998110e-01 0.0000000e+00
 3.4326537e-01 2.4444134e-01 0.0000000e+00
 3.4924667e-01 1.8498565e-01 0.0000000e+00
 3.4170036e-01 2.4920373e-01 0.0000000e+00
 3.4866162e-01 1.8000696e-01 0.0000000e+00
 3.3997709e-01 2.5391117e-01 0.0000000e+00
 3.4791054e-01 1.7505060e-01 0.0000000e+00
 3.3809748e-01 2.5855839e-01 0.0000000e+00
 3.4699426e-01 1.7012210e-01 0.0000000e+00
 3.3606364e-01 2.6314021e-01 0.0000000e+00
 3.4591380e-01 1.6522698e-01 0.0000000e+00
 3.3387783e-01 2.6765152e-01 0.0000000e+00
 3.4467038e-01 1.6037069e-01 0.0000000e+00
 3.3154249e-01 2.7208726e-01 0.0000000e+00
 3.4326537e-01 1.5555866e-01 0.0000000e+00
 3.2906024e-01 2.7644250e-01 0.0000000e+00
 3.4170036e-01 1.5079627e-01 0.0000000e+00
 3.2643384e-01 2.8071235e-01 0.0000000e+00
 3.3997709e-01 1.4608883e-01 0.0000000e+00
 3.2366623e-01 2.8489206e-01 0.0000000e+00
 3.3809748e-01 1.4144161e-01 0.0000000e+00
 3.2076051e-01 2.8897696e-01 0.0000000e+00
 3.3606364e-01 1.3685979e-01 0.0000000e+00
 3.1771991e-01 2.9296248e-01 0.0000000e+00
 3.3387783e-01 1.3234848e-01 0.0000000e+00
 3.1454783e-01 2.9684418e-01 0.0000000e+00
 3.3154249e-01 1.2791274e-01 0.0000000e+00
 3.1124782e-01 3.0061771e-01 0.0000000e+00
 3.2906024e-01 1.2355750e-01 0.0000000e+00
 3.0782355e-01 3.0427886e-01 0.0000000e+00
 3.2643384e-01 1.1928765e-01 0.0000000e+00
 3.0427886e-01 3.0782355e-01 0.0000000e+00
 3.2366623e-01 1.1510794e-01 0.0000000e+00
 3.0061771e-01 3.1124782e-01 0.0000000e+00
 3.2076051e-01 1.1102304e-01 0.0000000e+00
 2.9684418e-01 3.1454783e-01 0.0000000e+00
 3.1771991e-01 1.0703752e-01 0.0000000e+00
 2.9296248e-01 3.1771991e-01 0.0000000e+00
 3.1454783e-01 1.0315582e-01 0.0000000e+00
 2.8897696e-01 3.2076051e-01 0.0000000e+00
 3.1124782e-01 9.9382290e-02 0.0000000e+00
 2.8489206e-01 3.2366623e-01 0.0000000e+00
 3.0782355e-01 9.5721136e-02 0.0000000e+00
 2.8071235e-01 3.2643384e-01 0.0000000e+00
 3.0427886e-01 9.2176447e-02 0.0000000e+00
 2.7644250e-01 3.2906024e-01 0.0000000e+00
 3.0061771e-01 8.8752184e-02 0.0000000e+00
 2.7208726e-01 3.3154249e-01 0.0000000e+00
 2.9684418e-01 8.5452170e-02 0.0000000e+00
 2.6765152e-01 3.3387783e-01 0.0000000e+00
 2.9296248e-01 8.2280092e-02 0.0000000e+00
 2.6314021e-01 3.3606364e-01 0.0000000e+00
 2.8897696e-01 7.9239492e-02 0.0000000e+00
 2.5855839e-01 3.3809748e-01 0.0000000e+00
 2.8489206e-01 7.6333766e-02 0.0000000e+00
 2.5391117e-01 3.3997709e-01 0.0000000e+00
 2.8071235e-01 7.3566159e-02 0.0000000e+00
 2.4920373e-01 3.4170036e-01 0.0000000e+00
 2.7644250e-01 7.0939763e-02 0.0000000e+00
 2.4444134e-01 3.4326537e-01 0.0000000e+00
 2.7208726e-01 6.8457511e-02 0.0000000e+00
 2.3962931e-01 3.4467038e-01 0.0000000e+00
 2.6765152e-01 6.6122175e-02 0.0000000e+00
 2.3477302e-01 3.4591380e-01 0.0000000e+00
 2.6314021e-01 6.3936363e-02 0.0000000e+00
 2.2987790e-01 3.4699426e-01 0.0000000e+00
 2.5855839e-01 6.1902517e-02 0.0000000e+00
 2.2494940e-01 3.4791054e-01 0.0000000e+00
 2.5391117e-01 6.0022908e-02 0.0000000e+00
 2.1999304e-01 3.4866162e-01 0.0000000e+00
 2.4920373e-01 5.8299636e-02 0.0000000e+00
 2.1501435e-01 3.4924667e-01 0.0000000e+00
 2.4444134e-01 5.6734625e-02 0.0000000e+00
 2.1001890e-01 3.4966503e-01 0.0000000e+00
 2.3962931e-01 5.5329624e-02 0.0000000e+00
 2.0501225e-01 3.4991623e-01 0.0000000e+00
 2.3477302e-01 5.4086200e-02 0.0000000e+00
 2.0000000e-01 3.5000000e-01 0.0000000e+00
 2.2987790e-01 5.3005744e-02 0.0000000e+00
 1.9498775e-01 3.4991623e-01 0.0000000e+00
 2.2494940e-01 5.2089462e-02 0.0000000e+00
 1.8998110e-01 3.4966503e-01 0.0000000e+00
 2.1999304e-01 5.1338377e-02 0.0000000e+00
 1.8498565e-01 3.4924667e-01 0.0000000e+00
 2.1501435e-01 5.0753328e-02 0.0000000e+00
 1.8000696e-01 3.4866162e-01 0.0000000e+00
 2.1001889e-01 5.0334968e-02 0.0000000e+00
 1.7505060e-01 3.4791054e-01 0.0000000e+00
 2.0501225e-01 5.0083765e-02 0.0000000e+00
 1.7012210e-01 3.4699426e-01 0.0000000e+00
 2.0000000e-01 5.0000000e-02 0.0000000e+00
 1.6522698e-01 3.4591380e-01 0.0000000e+00
 1.9498775e-01 5.0083765e-02 0.0000000e+00
 1.6037069e-01 3.4467038e-01 0.0000000e+00
 1.8998110e-01 5.0334968e-02 0.0000000e+00
 1.5555866e-01 3.4326537e-01 0.0000000e+00
 1.8498565e-01 5.0753328e-02 0.0000000e+00
 1.5079627e-01 3.4170036e-01 0.0000000e+00
 1.8000696e-01 5.1338377e-02 0.0000000e+00
 1.4608883e-01 3.3997709e-01 0.0000000e+00
 1.7505060e-01 5.2089462e-02 0.0000000e+00
 1.4144161e-01 3.3809748e-01 0.0000000e+00
 1.7012210e-01 5.3005744e-02 0.0000000e+00
 1.3685979e-01 3.3606364e-01 0.0000000e+00
 1.6522698e-01 5.4086201e-02 0.0000000e+00
 1.3234848e-01 3.3387783e-01 0.0000000e+00
 1.6037069e-01 5.5329624e-02 0.0000000e+00
 1.2791274e-01 3.3154249e-01 0.0000000e+00
 1.5555866e-01 5.6734625e-02 0.0000000e+00
 1.2355750e-01 3.2906024e-01 0.0000000e+00
 1.5079627e-01 5.8299636e-02 0.0000000e+00
 1.1928765e-01 3.2643384e-01 0.0000000e+00
 1.4608883e-01 6.0022908e-02 0.0000000e+00
 1.1510794e-01 3.2366623e-01 0.0000000e+00
 1.4144161e-01 6.1902517e-02 0.0000000e+00
 1.1102304e-01 3.2076051e-01 0.0000000e+00
 1.3685979e-01 6.3936363e-02 0.0000000e+00
 1.0703752e-01 3.1771991e-01 0.0000000e+00
 1.3234848e-01 6.6122175e-02 0.0000000e+00
 1.0315582e-01 3.1454783e-01 0.0000000e+00
 1.2791274e-01 6.8457511e-02 0.0000000e+00
 9.9382290e-02 3.1124782e-01 0.0000000e+00
 1.2355750e-01 7.0939763e-02 0.0000000e+00
 9.5721136e-02 3.0782355e-01 0.0000000e+00
 1.1928765e-01 7.3566159e-02 0.0000000e+00
 9.2176447e-02 3.0427886e-01 0.0000000e+00
 1.1510794e-01 7.6333766e-02 0.0000000e+00
 8.8752184e-02 3.0061771e-01 0.0000000e+00
 1.1102304e-01 7.9239492e-02 0.0000000e+00
 8.5452171e-02 2.9684418e-01 0.0000000e+00
 1.0703752e-01 8.2280092e-02 0.0000000e+00
 8.2280092e-02 2.9296248e-01 0.0000000e+00
 1.0315582e-01 8.5452171e-02 0.0000000e+00
 7.9239492e-02 2.8897696e-01 0.0000000e+00
 9.9382290e-02 8.8752184e-02 0.0000000e+00
 7.6333766e-02 2.8489206e-01 0.0000000e+00
 9.5721136e-02 9.2176447e-02 0.0000000e+00
 7.3566159e-02 2.8071235e-01 0.0000000e+00
 9.2176447e-02 9.5721136e-02 0.0000000e+00
 7.0939763e-02 2.7644250e-01 0.0000000e+00
 8.8752184e-02 9.9382290e-02 0.0000000e+00
 6.8457511e-02 2.7208726e-01 0.0000000e+00
 8.5452170e-02 1.0315582e-01 0.0000000e+00
 6.6122175e-02 2.6765152e-01 0.0000000e+00
 8.2280092e-02 1.0703752e-01 0.0000000e+00
 6.3936363e-02 2.6314021e-01 0.0000000e+00
 7.9239492e-02 1.1102304e-01 0.0000000e+00
 6.1902517e-02 2.5855839e-01 0.0000000e+00
 7.6333766e-02 1.1510794e-01 0.0000000e+00
 6.0022908e-02 2.5391117e-01 0.0000000e+00
 7.3566159e-02 1.1928765e-01 0.0000000e+00
 5.8299636e-02 2.4920373e-01 0.0000000e+00
 7.0939763e-02 1.2355750e-01 0.0000000e+00
 5.6734625e-02 2.4444134e-01 0.0000000e+00
 6.8457511e-02 1.2791274e-01 0.0000000e+00
 5.5329624e-02 2.3962931e-01 0.0000000e+00
 6.6122175e-02 1.3234848e-01 0.0000000e+00
 5.4086201e-02 2.3477302e-01 0.0000000e+00
 6.3936363e-02 1.3685979e-01 0.0000000e+00
 5.3005744e-02 2.2987790e-01 0.0000000e+00
 6.1902517e-02 1.4144161e-01 0.0000000e+00
 5.2089462e-02 2.2494940e-01 0.0000000e+00
 6.0022908e-02 1.4608883e-01 0.0000000e+00
 5.1338377e-02 2.1999304e-01 0.0000000e+00
 5.8299636e-02 1.5079627e-01 0.0000000e+00
 5.0753328e-02 2.1501435e-01 0.0000000e+00
 5.6734625e-02 1.5555866e-01 0.0000000e+00
 5.0334968e-02 2.1001890e-01 0.0000000e+00
 5.5329624e-02 1.6037069e-01 0.0000000e+00
 5.0083765e-02 2.0501225e-01 0.0000000e+00
 5.4086200e-02 1.6522698e-01 0.0000000e+00
 5.0000000e-02 2.0000000e-01 0.0000000e+00
 5.3005744e-02 1.7012210e-01 0.0000000e+00
 5.0083765e-02 1.9498775e-01 0.0000000e+00
 5.2089462e-02 1.7505060e-01 0.0000000e+00
 5.0334968e-02 1.8998111e-01 0.0000000e+00
 5.1338377e-02 1.8000696e-01 0.0000000e+00
 5.0753328e-02 1.8498565e-01 0.0000000e+00
CELLS 188 564
2 24 22
2 93 95
2 43 45
2 56 54
2 22 20
2 186 184
2 102 100
2 157 159
2 94 92
2 64 62
2 135 137
2 99 101
2 152 150
2 172 170
2 154 152
2 58 56
2 176 174
2 77 79
2 136 134
2 134 132
2 110 108
2 76 74
2 40 38
2 162 160
2 15 17
2 155 157
2 62 60
2 11 13
2 160 158
2 66 64
2 78 76
2 177 179
2 84 82
2 118 116
2 21 23
2 70 68
2 81 83
2 114 112
2 35 37
2 91 93
2 28 26
2 185 187
2 98 96
2 14 12
2 49 51
2 184 182
2 82 80
2 170 168
2 80 78
2 128 126
2 109 111
2 68 66
2 86 84
2 95 97
2 146 144
2 67 69
2 105 107
2 30 28
2 19 21
2 65 67
2 51 53
2 159 161
2 88 86
2 131 133
2 89 91
2 111 113
2 2 0
2 127 129
2 85 87
2 112 110
2 41 43
2 18 16
2 34 32
2 153 155
2 116 114
2 3 5
2 26 24
2 119 121
2 16 14
2 60 58
2 104 102
2 133 135
2 42 40
2 96 94
2 44 42
2 161 163
2 101 103
2 164 162
2 52 50
2 54 52
2 9 11
2 122 120
2 181 183
2 83 85
2 100 98
2 151 153
2 13 15
2 130 128
2 63 65
2 145 147
2 87 89
2 97 99
2 103 105
2 59 61
2 107 109
2 113 115
2 115 117
2 117 119
2 121 123
2 123 125
2 125 127
2 129 131
2 139 141
2 150 148
2 141 143
2 143 145
2 147 149
2 149 151
2 171 173
2 163 165
2 165 167
2 167 169
2 166 164
2 169 171
2 173 175
2 175 177
2 179 181
2 183 185
2 187 186
2 182 180
2 180 178
2 178 176
2 174 172
2 168 166
2 75 77
2 140 138
2 158 156
2 156 154
2 148 146
2 144 142
2 138 136
2 132 130
2 142 140
2 126 124
2 120 118
2 108 106
2 106 104
2 92 90
2 90 88
2 74 72
2 72 70
2 50 48
2 48 46
2 46 44
2 124 122
2 25 27
2 38 36
2 36 34
2 32 30
2 20 18
2 12 10
2 10 8
2 8 6
2 6 4
2 4 2
2 0 1
2 1 3
2 5 7
2 7 9
2 23 25
2 27 29
2 29 31
2 31 33
2 33 35
2 37 39
2 39 41
2 45 47
2 47 49
2 53 55
2 55 57
2 57 59
2 61 63
2 69 71
2 71 73
2 73 75
2 137 139
2 79 81
2 17 19
CELL_TYPES 188
3
3
3
3
3
3
3
3
3
3
3
3
3
3
3
3
3
3
3
3
3
3
3
3
3
3
3
3
3
3
3
3
3
3
3
3
3
3
3
3
3
3
3
3
3
3
3
3
3
3
3
3
3
3
3
3
3
3
3
3
3
3
3
3
3
3
3
3
3
3
3
3
3
3
3
3
3
3
3
3
3
3
3
3
3
3
3
3
3
3
3
3
3
3
3
3
3
3
3
3
3
3
3
3
3
3
3
3
3
3
3
3
3
3
3
3
3
3
3
3
3
3
3
3
3
3
3
3
3
3
3
3
3
3
3
3
3
3
3
3
3
3
3
3
3
3
3
3
3
3
3
3
3
3
3
3
3
3
3
3
3
3
3
3
3
3
3
3
3
3
3
3
3
3
3
3
3
3
3
3
3
3
3
3
3
3
3
3
POINT_DATA 188
VECTORS VELOCITY float
1.8686061e-01 -5.5700009e-03 0.0000000e+00
1.8734412e-01 -7.3206431e-03 0.0000000e+00
1.8652619e-01 -3.8457198e-03 0.0000000e+00
1.8794361e-01 -9.0066560e-03 0.0000000e+00
1.8632238e-01 -2.0785492e-03 0.0000000e+00
1.8870776e-01 -1.0635715e-02 0.0000000e+00
1.8626638e-01 -3.1645526e-04 0.0000000e+00
1.8956776e-01 -1.2205506e-02 0.0000000e+00
1.8630736e-01 1.4479038e-03 0.0000000e+00
1.9056422e-01 -1.3737364e-02 0.0000000e+00
1.8653507e-01 3.2080346e-03 0.0000000e+00
1.9169122e-01 -1.5197775e-02 0.0000000e+00
1.8686156e-01 4.9341500e-03 0.0000000e+00
1.9292169e-01 -1.6582674e-02 0.0000000e+00
1.8735296e-01 6.6659272e-03 0.0000000e+00
1.9425329e-01 -1.7888473e-02 0.0000000e+00
1.8794148e-01 8.3318285e-03 0.0000000e+00
1.9569634e-01 -1.9101736e-02 0.0000000e+00
1.8867519e-01 9.9640316e-03 0.0000000e+00
1.9723780e-01 -2.0218736e-02 0.0000000e+00
1.8955134e-01 1.1575174e-02 0.0000000e+00
1.9887177e-01 -2.1235882e-02 0.0000000e+00
1.9053535e-01 1.3114861e-02 0.0000000e+00
2.0059135e-01 -2.2146131e-02 0.0000000e+00
1.9165861e-01 1.4566495e-02 0.0000000e+00
2.0238130e-01 -2.2948254e-02 0.0000000e+00
1.9289852e-01 1.5931936e-02 0.0000000e+00
2.0423803e-01 -2.3645771e-02 0.0000000e+00
1.9422210e-01 1.7225740e-02 0.0000000e+00
2.0616590e-01 -2.4232439e-02 0.0000000e+00
1.9564314e-01 1.8444094e-02 0.0000000e+00
2.0816381e-01 -2.4693234e-02 0.0000000e+00
1.9717517e-01 1.9575134e-02 0.0000000e+00
2.1021349e-01 -2.5018895e-02 0.0000000e+00
1.9881795e-01 2.0605523e-02 0.0000000e+00
2.1229382e-01 -2.5211125e-02 0.0000000e+00
2.0055531e-01 2.1521563e-02 0.0000000e+00
2.1439581e-01 -2.5281905e-02 0.0000000e+00
2.0236855e-01 2.2320945e-02 0.0000000e+00
2.1652971e-01 -2.5260540e-02 0.0000000e+00
2.0424534e-01 2.3005946e-02 0.0000000e+00
2.1867823e-01 -2.5104026e-02 0.0000000e+00
2.0618243e-01 2.3578968e-02 0.0000000e+00
2.2080541e-01 -2.4811869e-02 0.0000000e+00
2.0818002e-01 2.4029558e-02 0.0000000e+00
2.2294088e-01 -2.4431144e-02 0.0000000e+00
2.1022881e-01 2.4351681e-02 0.0000000e+00
2.2506326e-01 -2.3899986e-02 0.0000000e+00
2.1231105e-01 2.4546662e-02 0.0000000e+00
2.2716363e-01 -2.3237090e-02 0.0000000e+00
2.1443775e-01 2.4655327e-02 0.0000000e+00
2.2921221e-01 -2.2489716e-02 0.0000000e+00
2.1657850e-01 2.4624612e-02 0.0000000e+00
2.3120531e-01 -2.1634263e-02 0.0000000e+00
2.1872213e-01 2.4454146e-02 0.0000000e+00
2.3316920e-01 -2.0659702e-02 0.0000000e+00
2.2087497e-01 2.4170184e-02 0.0000000e+00
2.3504172e-01 -1.9629220e-02 0.0000000e+00
2.2304367e-01 2.3785973e-02 0.0000000e+00
2.3683637e-01 -1.8479442e-02 0.0000000e+00
2.2519360e-01 2.3263430e-02 0.0000000e+00
2.3855277e-01 -1.7250670e-02 0.0000000e+00
2.2731585e-01 2.2650058e-02 0.0000000e+00
2.4015839e-01 -1.5916793e-02 0.0000000e+00
2.2939816e-01 2.1896539e-02 0.0000000e+00
2.4165570e-01 -1.4548744e-02 0.0000000e+00
2.3146649e-01 2.1027236e-02 0.0000000e+00
2.4305341e-01 -1.3051768e-02 0.0000000e+00
2.3343199e-01 2.0095655e-02 0.0000000e+00
2.4432416e-01 -1.1526229e-02 0.0000000e+00
2.3537993e-01 1.9049720e-02 0.0000000e+00
2.4545694e-01 -9.9353795e-03 0.0000000e+00
2.3722173e-01 1.7937531e-02 0.0000000e+00
2.4643068e-01 -8.2725231e-03 0.0000000e+00
2.3900835e-01 1.6731006e-02 0.0000000e+00
2.4723863e-01 -6.5731718e-03 0.0000000e+00
2.4067387e-01 1.5442886e-02 0.0000000e+00
2.4789753e-01 -4.8205908e-03 0.0000000e+00
2.4221525e-01 1.4092020e-02 0.0000000e+00
2.4838494e-01 -3.0230355e-03 0.0000000e+00
2.4365613e-01 1.2703789e-02 0.0000000e+00
2.4869926e-01 -1.1794659e-03 0.0000000e+00
2.4497148e-01 1.1217032e-02 0.0000000e+00
2.4883808e-01 7.1006220e-04 0.0000000e+00
2.4615234e-01 9.7086758e-03 0.0000000e+00
2.4879834e-01 2.6446242e-03 0.0000000e+00
2.4718474e-01 8.1625508e-03 0.0000000e+00
2.4857765e-01 4.6233990e-03 0.0000000e+00
2.4804992e-01 6.5676852e-03 0.0000000e+00
2.4817547e-01 6.6422901e-03 0.0000000e+00
2.4874034e-01 4.9283189e-03 0.0000000e+00
2.4759545e-01 8.6962457e-03 0.0000000e+00
2.4926439e-01 3.2573497e-03 0.0000000e+00
2.4684651e-01 1.0787693e-02 0.0000000e+00
2.4960368e-01 1.5442407e-03 0.0000000e+00
2.4593290e-01 1.2919215e-02 0.0000000e+00
2.4974752e-01 -2.0386985e-04 0.0000000e+00
2.4485911e-01 1.5098838e-02 0.0000000e+00
2.4969672e-01 -1.9893442e-03 0.0000000e+00
2.4363290e-01 1.7324597e-02 0.0000000e+00
2.4944907e-01 -3.8190317e-03 0.0000000e+00
2.4227711e-01 1.9585806e-02 0.0000000e+00
2.4899808e-01 -5.6876899e-03 0.0000000e+00
2.4079558e-01 2.1902202e-02 0.0000000e+00
2.4834770e-01 -7.5904236e-03 0.0000000e+00
2.3919531e-01 2.4254263e-02 0.0000000e+00
2.4750944e-01 -9.5327778e-03 0.0000000e+00
2.3750683e-01 2.6646506e-02 0.0000000e+00
2.4648475e-01 -1.1524120e-02 0.0000000e+00
2.3576332e-01 2.9095573e-02 0.0000000e+00
2.4528007e-01 -1.3564355e-02 0.0000000e+00
2.3397209e-01 3.1537093e-02 0.0000000e+00
2.4391519e-01 -1.5654841e-02 0.0000000e+00
2.3216765e-01 3.4028907e-02 0.0000000e+00
2.4238908e-01 -1.7790380e-02 0.0000000e+00
2.3035867e-01 3.6530198e-02 0.0000000e+00
2.4071758e-01 -1.9973332e-02 0.0000000e+00
2.2858844e-01 3.9041418e-02 0.0000000e+00
2.3892983e-01 -2.2217397e-02 0.0000000e+00
2.2688157e-01 4.1545862e-02 0.0000000e+00
2.3705527e-01 -2.4533973e-02 0.0000000e+00
2.2524554e-01 4.4040026e-02 0.0000000e+00
2.3508845e-01 -2.6873443e-02 0.0000000e+00
2.2373438e-01 4.6502118e-02 0.0000000e+00
2.3307739e-01 -2.9275254e-02 0.0000000e+00
2.2236944e-01 4.8899611e-02 0.0000000e+00
2.3101998e-01 -3.1730225e-02 0.0000000e+00
2.2114718e-01 5.1221255e-02 0.0000000e+00
2.2894289e-01 -3.4225605e-02 0.0000000e+00
2.2013381e-01 5.3431396e-02 0.0000000e+00
2.2689828e-01 -3.6746618e-02 0.0000000e+00
2.1936668e-01 5.5479817e-02 0.0000000e+00
2.2489004e-01 -3.9301415e-02 0.0000000e+00
2.1882088e-01 5.7400390e-02 0.0000000e+00
2.2297578e-01 -4.1866057e-02 0.0000000e+00
2.1850708e-01 5.9078179e-02 0.0000000e+00
2.2114730e-01 -4.4418843e-02 0.0000000e+00
2.1845428e-01 6.0501239e-02 0.0000000e+00
2.1946914e-01 -4.6958247e-02 0.0000000e+00
2.1864732e-01 6.1701426e-02 0.0000000e+00
2.1797780e-01 -4.9440348e-02 0.0000000e+00
2.1909491e-01 6.2590174e-02 0.0000000e+00
2.1666426e-01 -5.1851730e-02 0.0000000e+00
2.1979289e-01 6.3123489e-02 0.0000000e+00
2.1558623e-01 -5.4134243e-02 0.0000000e+00
2.2072660e-01 6.3276739e-02 0.0000000e+00
2.1476068e-01 -5.6309409e-02 0.0000000e+00
2.2187609e-01 6.3023467e-02 0.0000000e+00
2.1421058e-01 -5.8330489e-02 0.0000000e+00
2.2321624e-01 6.2341877e-02 0.0000000e+00
2.1394072e-01 -6.0123772e-02 0.0000000e+00
2.2471992e-01 6.1214117e-02 0.0000000e+00
2.1394305e-01 -6.1640676e-02 0.0000000e+00
2.2635830e-01 5.9627526e-02 0.0000000e+00
2.1421105e-01 -6.2934276e-02 0.0000000e+00
2.2809859e-01 5.7576980e-02 0.0000000e+00
2.1476490e-01 -6.3896990e-02 0.0000000e+00
2.2990280e-01 5.5060190e-02 0.0000000e+00
2.1560647e-01 -6.4490598e-02 0.0000000e+00
2.3172976e-01 5.2078905e-02 0.0000000e+00
2.1671939e-01 -6.4685873e-02 0.0000000e+00
2.3354130e-01 4.8636469e-02 0.0000000e+00
2.1806961e-01 -6.4460096e-02 0.0000000e+00
2.3528024e-01 4.4779807e-02 0.0000000e+00
2.1962974e-01 -6.3791687e-02 0.0000000e+00
2.3691447e-01 4.0531581e-02 0.0000000e+00
2.2136715e-01 -6.2664180e-02 0.0000000e+00
2.3843767e-01 3.5891025e-02 0.0000000e+00
2.2324694e-01 -6.1061511e-02 0.0000000e+00
2.3983626e-01 3.0910721e-02 0.0000000e+00
2.2525180e-01 -5.8980131e-02 0.0000000e+00
2.4101168e-01 2.5664659e-02 0.0000000e+00
2.2733491e-01 -5.6420232e-02 0.0000000e+00
2.4195600e-01 2.0120453e-02 0.0000000e+00
2.2942740e-01 -5.3407503e-02 0.0000000e+00
2.4263928e-01 1.4399456e-02 0.0000000e+00
2.3146912e-01 -4.9972032e-02 0.0000000e+00
2.4309732e-01 8.5192067e-03 0.0000000e+00
2.3344671e-01 -4.6067603e-02 0.0000000e+00
2.4326799e-01 2.5528186e-03 0.0000000e+00
2.3532531e-01 -4.1706807e-02 0.0000000e+00
2.4316091e-01 -3.4504117e-03 0.0000000e+00
2.3704472e-01 -3.7006680e-02 0.0000000e+00
2.4279099e-01 -9.4384120e-03 0.0000000e+00
2.3864053e-01 -3.1976683e-02 0.0000000e+00
2.4213105e-01 -1.5321571e-02 0.0000000e+00
2.4004995e-01 -2.6635256e-02 0.0000000e+00
2.4120217e-01 -2.1088352e-02 0.0000000e+00
SCALARS PRESSURE float 1
LOOKUP_TABLE default
-1.8412185e+00
-1.8421513e+00
-1.8405355e+00
-1.8433320e+00
-1.8400993e+00
-1.8447679e+00
-1.8399137e+00
-1.8464481e+00
-1.8399729e+00
-1.8483763e+00
-1.8402858e+00
-1.8505494e+00
-1.8408398e+00
-1.8529586e+00
-1.8416416e+00
-1.8555996e+00
-1.8426831e+00
-1.8584718e+00
-1.8439646e+00
-1.8615725e+00
-1.8454818e+00
-1.8648973e+00
-1.8472279e+00
-1.8684388e+00
-1.8492050e+00
-1.8721913e+00
-1.8514091e+00
-1.8761486e+00
-1.8538340e+00
-1.8803015e+00
-1.8564780e+00
-1.8846380e+00
-1.8593396e+00
-1.8891463e+00
-1.8624143e+00
-1.8938136e+00
-1.8656942e+00
-1.8986263e+00
-1.8691751e+00
-1.9035724e+00
-1.8728511e+00
-1.9086325e+00
-1.8767176e+00
-1.9137921e+00
-1.8807681e+00
-1.9190428e+00
-1.8849957e+00
-1.9243454e+00
-1.8893918e+00
-1.9296864e+00
-1.8939520e+00
-1.9350696e+00
-1.8986600e+00
-1.9404679e+00
-1.9035063e+00
-1.9458695e+00
-1.9084875e+00
-1.9512786e+00
-1.9135991e+00
-1.9566586e+00
-1.9188251e+00
-1.9620226e+00
-1.9241684e+00
-1.9673426e+00
-1.9296092e+00
-1.9726355e+00
-1.9351451e+00
-1.9778908e+00
-1.9407605e+00
-1.9831119e+00
-1.9464493e+00
-1.9882870e+00
-1.9521959e+00
-1.9934124e+00
-1.9579981e+00
-1.9984919e+00
-1.9638354e+00
-2.0035367e+00
-1.9697019e+00
-2.0085409e+00
-1.9756020e+00
-2.0135075e+00
-1.9815145e+00
-2.0184390e+00
-1.9874385e+00
-2.0233394e+00
-1.9933594e+00
-2.0282135e+00
-1.9992650e+00
-2.0330685e+00
-2.0051518e+00
-2.0379116e+00
-2.0110230e+00
-2.0427489e+00
-2.0168729e+00
-2.0475881e+00
-2.0226995e+00
-2.0524333e+00
-2.0285000e+00
-2.0572911e+00
-2.0342694e+00
-2.0621657e+00
-2.0400053e+00
-2.0670709e+00
-2.0457089e+00
-2.0720100e+00
-2.0513840e+00
-2.0769933e+00
-2.0570338e+00
-2.0820254e+00
-2.0626633e+00
-2.0871123e+00
-2.0682831e+00
-2.0922585e+00
-2.0738934e+00
-2.0974869e+00
-2.0794952e+00
-2.1027970e+00
-2.0850900e+00
-2.1082027e+00
-2.0906794e+00
-2.1136713e+00
-2.0962662e+00
-2.1192208e+00
-2.1018515e+00
-2.1248477e+00
-2.1074421e+00
-2.1305208e+00
-2.1130488e+00
-2.1362676e+00
-2.1186696e+00
-2.1420881e+00
-2.1242962e+00
-2.1479334e+00
-2.1299381e+00
-2.1537904e+00
-2.1355671e+00
-2.1596510e+00
-2.1412060e+00
-2.1654893e+00
-2.1468604e+00
-2.1712894e+00
-2.1524931e+00
-2.1770297e+00
-2.1581167e+00
-2.1826845e+00
-2.1637191e+00
-2.1882272e+00
-2.1692865e+00
-2.1936312e+00
-2.1747941e+00
-2.1988726e+00
-2.1802158e+00
-2.2039288e+00
-2.1855436e+00
-2.2087737e+00
-2.1907613e+00
-2.2133797e+00
-2.1958543e+00
-2.2177217e+00
-2.2008020e+00
-2.2217796e+00
-2.2055798e+00
-2.2255349e+00
-2.2101686e+00
-2.2289760e+00
-2.2145472e+00
-2.2320952e+00
-2.2186933e+00
-2.2348952e+00
-2.2225922e+00
-2.2373467e+00
-2.2262212e+00
-2.2394200e+00
-2.2295547e+00
-2.2411221e+00
-2.2325728e+00
-2.2424718e+00
-2.2352570e+00
-2.2434392e+00
-2.2375944e+00
-2.2440179e+00
-2.2395879e+00
-2.2442362e+00
-2.2412523e+00
-2.2440446e+00
-2.2425552e+00
-2.2434899e+00
SCALARS DISTANCE float 1
LOOKUP_TABLE default
-2.0000000e+02
-2.0000000e+02
-2.0000000e+02
-2.0000000e+02
-2.0000000e+02
-2.0000000e+02
-2.0000000e+02
-2.0000000e+02
-2.0000000e+02
-2.0000000e+02
-2.0000000e+02
-2.0000000e+02
-2.0000000e+02
-2.0000000e+02
-2.0000000e+02
-2.0000000e+02
-2.0000000e+02
-2.0000000e+02
-2.0000000e+02
-2.0000000e+02
-2.0000000e+02
-2.0000000e+02
-2.0000000e+02
-2.0000000e+02
-2.0000000e+02
-2.0000000e+02
-2.0000000e+02
-2.0000000e+02
-2.0000000e+02
-2.0000000e+02
-2.0000000e+02
-2.0000000e+02
-2.0000000e+02
-2.0000000e+02
-2.0000000e+02
-2.0000000e+02
-2.0000000e+02
-2.0000000e+02
-2.0000000e+02
-2.0000000e+02
-2.0000000e+02
-2.0000000e+02
-2.0000000e+02
-2.0000000e+02
-2.0000000e+02
-2.0000000e+02
-2.0000000e+02
-2.0000000e+02
-2.0000000e+02
-2.0000000e+02
-2.0000000e+02
-2.0000000e+02
-2.0000000e+02
-2.0000000e+02
-2.0000000e+02
-2.0000000e+02
-2.0000000e+02
-2.0000000e+02
-2.0000000e+02
-2.0000000e+02
-2.0000000e+02
-2.0000000e+02
-2.0000000e+02
-2.0000000e+02
-2.0000000e+02
-2.0000000e+02
-2.0000000e+02
-2.0000000e+02
-2.0000000e+02
-2.0000000e+02
-2.0000000e+02
-2.0000000e+02
-2.0000000e+02
-2.0000000e+02
-2.0000000e+02
-2.0000000e+02
-2.0000000e+02
-2.0000000e+02
-2.0000000e+02
-2.0000000e+02
-2.0000000e+02
-2.0000000e+02
-2.0000000e+02
-2.0000000e+02
-2.0000000e+02
-2.0000000e+02
-2.0000000e+02
-2.0000000e+02
-2.0000000e+02
-2.0000000e+02
-2.0000000e+02
-2.0000000e+02
-2.0000000e+02
-2.0000000e+02
-2.0000000e+02
-2.0000000e+02
-2.0000000e+02
-2.0000000e+02
-2.0000000e+02
-2.0000000e+02
-2.0000000e+02
-2.0000000e+02
-2.0000000e+02
-2.0000000e+02
-2.0000000e+02
-2.0000000e+02
-2.0000000e+02
-2.0000000e+02
-2.0000000e+02
-2.0000000e+02
-2.0000000e+02
-2.0000000e+02
-2.0000000e+02
-2.0000000e+02
-2.0000000e+02
-2.0000000e+02
-2.0000000e+02
-2.0000000e+02
-2.0000000e+02
-2.0000000e+02
-2.0000000e+02
-2.0000000e+02
-2.0000000e+02
-2.0000000e+02
-2.0000000e+02
-2.0000000e+02
-2.0000000e+02
-2.0000000e+02
-2.0000000e+02
-2.0000000e+02
-2.0000000e+02
-2.0000000e+02
-2.0000000e+02
-2.0000000e+02
-2.0000000e+02
-2.0000000e+02
-2.0000000e+02
-2.0000000e+02
-2.0000000e+02
-2.0000000e+02
-2.0000000e+02
-2.0000000e+02
-2.0000000e+02
-2.0000000e+02
-2.0000000e+02
-2.0000000e+02
-2.0000000e+02
-2.0000000e+02
-2.0000000e+02
-2.0000000e+02
-2.0000000e+02
-2.0000000e+02
-2.0000000e+02
-2.0000000e+02
-2.0000000e+02
-2.0000000e+02
-2.0000000e+02
-2.0000000e+02
-2.0000000e+02
-2.0000000e+02
-2.0000000e+02
-2.0000000e+02
-2.0000000e+02
-2.0000000e+02
-2.0000000e+02
-2.0000000e+02
-2.0000000e+02
-2.0000000e+02
-2.0000000e+02
-2.0000000e+02
-2.0000000e+02
-2.0000000e+02
-2.0000000e+02
-2.0000000e+02
-2.0000000e+02
-2.0000000e+02
-2.0000000e+02
-2.0000000e+02
-2.0000000e+02
-2.0000000e+02
-2.0000000e+02
-2.0000000e+02
-2.0000000e+02
-2.0000000e+02
-2.0000000e+02
-2.0000000e+02
-2.0000000e+02
-2.0000000e+02
