# vtk DataFile Version 4.0
vtk output
ASCII
DATASET UNSTRUCTURED_GRID
POINTS 22 float
0.00000000e+00 0.00000000e+00 0.00000000e+00 
1.00000000e+00 0.00000000e+00 0.00000000e+00 
0.00000000e+00 1.00000000e+00 0.00000000e+00 
0.00000000e+00 0.00000000e+00 2.00000003e-01 
1.00000000e+00 0.00000000e+00 2.00000003e-01 
0.00000000e+00 1.00000000e+00 2.00000003e-01 
5.00000000e-01 0.00000000e+00 0.00000000e+00 
5.00000000e-01 5.00000000e-01 0.00000000e+00 
0.00000000e+00 5.00000000e-01 0.00000000e+00 
0.00000000e+00 0.00000000e+00 1.00000001e-01 
1.00000000e+00 0.00000000e+00 1.00000001e-01 
0.00000000e+00 1.00000000e+00 1.00000001e-01 
5.00000000e-01 0.00000000e+00 2.00000003e-01 
5.00000000e-01 5.00000000e-01 2.00000003e-01 
0.00000000e+00 5.00000000e-01 2.00000003e-01 
1.00000000e+00 1.00000000e+00 0.00000000e+00 
1.00000000e+00 5.00000000e-01 0.00000000e+00 
5.00000000e-01 1.00000000e+00 0.00000000e+00 
1.00000000e+00 1.00000000e+00 2.00000003e-01 
1.00000000e+00 5.00000000e-01 2.00000003e-01 
5.00000000e-01 1.00000000e+00 2.00000003e-01 
1.00000000e+00 1.00000000e+00 1.00000001e-01 

CELLS 2 32
15 0 1 2 3 4 5 6 7 8 12 13 14 9 10 11
15 15 2 1 18 5 4 17 7 16 20 13 19 21 11 10

CELL_TYPES 2
26
26
POINT_DATA 22
FIELD FieldData 4
PRESSURE 1 22  float
0.00000000e+00
3.03200006e+00
0.00000000e+00
0.00000000e+00
3.03200006e+00
0.00000000e+00
1.51600003e+00
1.51600003e+00
0.00000000e+00
0.00000000e+00
3.03200006e+00
0.00000000e+00
1.51600003e+00
1.51600003e+00
0.00000000e+00
3.03200006e+00
3.03200006e+00
1.51600003e+00
3.03200006e+00
3.03200006e+00
1.51600003e+00
3.03200006e+00
DISPLACEMENT 3 22  float
0.00000000e+00 0.00000000e+00 0.00000000e+00 
7.58000016e-01 0.00000000e+00 0.00000000e+00 
0.00000000e+00 1.00000000e+00 0.00000000e+00 
0.00000000e+00 0.00000000e+00 8.00000012e-01 
7.58000016e-01 0.00000000e+00 8.00000012e-01 
0.00000000e+00 1.00000000e+00 8.00000012e-01 
3.79000008e-01 0.00000000e+00 0.00000000e+00 
3.79000008e-01 5.00000000e-01 0.00000000e+00 
0.00000000e+00 5.00000000e-01 0.00000000e+00 
0.00000000e+00 0.00000000e+00 4.00000006e-01 
7.58000016e-01 0.00000000e+00 4.00000006e-01 
0.00000000e+00 1.00000000e+00 4.00000006e-01 
3.79000008e-01 0.00000000e+00 8.00000012e-01 
3.79000008e-01 5.00000000e-01 8.00000012e-01 
0.00000000e+00 5.00000000e-01 8.00000012e-01 
7.58000016e-01 1.00000000e+00 0.00000000e+00 
7.58000016e-01 5.00000000e-01 0.00000000e+00 
3.79000008e-01 1.00000000e+00 0.00000000e+00 
7.58000016e-01 1.00000000e+00 8.00000012e-01 
7.58000016e-01 5.00000000e-01 8.00000012e-01 
3.79000008e-01 1.00000000e+00 8.00000012e-01 
7.58000016e-01 1.00000000e+00 4.00000006e-01 
VELOCITY 3 22  float
0.00000000e+00 0.00000000e+00 0.00000000e+00 
2.00000000e+00 0.00000000e+00 0.00000000e+00 
0.00000000e+00 2.00000000e+00 0.00000000e+00 
0.00000000e+00 0.00000000e+00 4.00000006e-01 
2.00000000e+00 0.00000000e+00 4.00000006e-01 
0.00000000e+00 2.00000000e+00 4.00000006e-01 
1.00000000e+00 0.00000000e+00 0.00000000e+00 
1.00000000e+00 1.00000000e+00 0.00000000e+00 
0.00000000e+00 1.00000000e+00 0.00000000e+00 
0.00000000e+00 0.00000000e+00 2.00000003e-01 
2.00000000e+00 0.00000000e+00 2.00000003e-01 
0.00000000e+00 2.00000000e+00 2.00000003e-01 
1.00000000e+00 0.00000000e+00 4.00000006e-01 
1.00000000e+00 1.00000000e+00 4.00000006e-01 
0.00000000e+00 1.00000000e+00 4.00000006e-01 
2.00000000e+00 2.00000000e+00 0.00000000e+00 
2.00000000e+00 1.00000000e+00 0.00000000e+00 
1.00000000e+00 2.00000000e+00 0.00000000e+00 
2.00000000e+00 2.00000000e+00 4.00000006e-01 
2.00000000e+00 1.00000000e+00 4.00000006e-01 
1.00000000e+00 2.00000000e+00 4.00000006e-01 
2.00000000e+00 2.00000000e+00 2.00000003e-01 
BOUNDARY 1 22  float
-1.00000000e+00
-1.00000000e+00
-1.00000000e+00
-1.00000000e+00
-1.00000000e+00
-1.00000000e+00
-1.00000000e+00
-1.00000000e+00
-1.00000000e+00
-1.00000000e+00
-1.00000000e+00
-1.00000000e+00
-1.00000000e+00
-1.00000000e+00
-1.00000000e+00
-1.00000000e+00
-1.00000000e+00
-1.00000000e+00
-1.00000000e+00
-1.00000000e+00
-1.00000000e+00
-1.00000000e+00
CELL_DATA 2
FIELD FieldData 1
DETERMINANT 3 2  float
0.00000000e+00 7.58000016e-01 3.03200006e+00 
1.88999996e-01 7.58000016e-01 3.03200006e+00 
