# vtk DataFile Version 4.0
vtk output
ASCII
DATASET UNSTRUCTURED_GRID
POINTS 27 float
0.00000000e+00 0.00000000e+00 0.00000000e+00 
1.00000000e+00 0.00000000e+00 0.00000000e+00 
1.00000000e+00 1.00000000e+00 0.00000000e+00 
0.00000000e+00 1.00000000e+00 0.00000000e+00 
0.00000000e+00 0.00000000e+00 1.00000000e+00 
1.00000000e+00 0.00000000e+00 1.00000000e+00 
1.00000000e+00 1.00000000e+00 1.00000000e+00 
0.00000000e+00 1.00000000e+00 1.00000000e+00 
5.00000000e-01 0.00000000e+00 0.00000000e+00 
1.00000000e+00 5.00000000e-01 0.00000000e+00 
5.00000000e-01 1.00000000e+00 0.00000000e+00 
0.00000000e+00 5.00000000e-01 0.00000000e+00 
0.00000000e+00 0.00000000e+00 5.00000000e-01 
1.00000000e+00 0.00000000e+00 5.00000000e-01 
1.00000000e+00 1.00000000e+00 5.00000000e-01 
0.00000000e+00 1.00000000e+00 5.00000000e-01 
5.00000000e-01 0.00000000e+00 1.00000000e+00 
1.00000000e+00 5.00000000e-01 1.00000000e+00 
5.00000000e-01 1.00000000e+00 1.00000000e+00 
0.00000000e+00 5.00000000e-01 1.00000000e+00 
5.00000000e-01 5.00000000e-01 0.00000000e+00 
5.00000000e-01 0.00000000e+00 5.00000000e-01 
1.00000000e+00 5.00000000e-01 5.00000000e-01 
5.00000000e-01 1.00000000e+00 5.00000000e-01 
0.00000000e+00 5.00000000e-01 5.00000000e-01 
5.00000000e-01 5.00000000e-01 1.00000000e+00 
5.00000000e-01 5.00000000e-01 5.00000000e-01 

CELLS 1 28
27 0 1 2 3 4 5 6 7 8 9 10 11 16 17 18 19 12 13 14 15 24 22 21 23 20 25 26

CELL_TYPES 1
29
POINT_DATA 27
FIELD FieldData 4
PRESSURE 1 27  float
0.00000000e+00
3.03200006e+00
3.03200006e+00
0.00000000e+00
0.00000000e+00
3.03200006e+00
3.03200006e+00
0.00000000e+00
1.51600003e+00
3.03200006e+00
1.51600003e+00
0.00000000e+00
0.00000000e+00
3.03200006e+00
3.03200006e+00
0.00000000e+00
1.51600003e+00
3.03200006e+00
1.51600003e+00
0.00000000e+00
1.51600003e+00
1.51600003e+00
3.03200006e+00
1.51600003e+00
0.00000000e+00
1.51600003e+00
1.51600003e+00
DISPLACEMENT 3 27  float
0.00000000e+00 0.00000000e+00 0.00000000e+00 
7.58000016e-01 0.00000000e+00 0.00000000e+00 
7.58000016e-01 1.00000000e+00 0.00000000e+00 
0.00000000e+00 1.00000000e+00 0.00000000e+00 
0.00000000e+00 0.00000000e+00 4.00000000e+00 
7.58000016e-01 0.00000000e+00 4.00000000e+00 
7.58000016e-01 1.00000000e+00 4.00000000e+00 
0.00000000e+00 1.00000000e+00 4.00000000e+00 
3.79000008e-01 0.00000000e+00 0.00000000e+00 
7.58000016e-01 5.00000000e-01 0.00000000e+00 
3.79000008e-01 1.00000000e+00 0.00000000e+00 
0.00000000e+00 5.00000000e-01 0.00000000e+00 
0.00000000e+00 0.00000000e+00 2.00000000e+00 
7.58000016e-01 0.00000000e+00 2.00000000e+00 
7.58000016e-01 1.00000000e+00 2.00000000e+00 
0.00000000e+00 1.00000000e+00 2.00000000e+00 
3.79000008e-01 0.00000000e+00 4.00000000e+00 
7.58000016e-01 5.00000000e-01 4.00000000e+00 
3.79000008e-01 1.00000000e+00 4.00000000e+00 
0.00000000e+00 5.00000000e-01 4.00000000e+00 
3.79000008e-01 5.00000000e-01 0.00000000e+00 
3.79000008e-01 0.00000000e+00 2.00000000e+00 
7.58000016e-01 5.00000000e-01 2.00000000e+00 
3.79000008e-01 1.00000000e+00 2.00000000e+00 
0.00000000e+00 5.00000000e-01 2.00000000e+00 
3.79000008e-01 5.00000000e-01 4.00000000e+00 
3.79000008e-01 5.00000000e-01 2.00000000e+00 
VELOCITY 3 27  float
0.00000000e+00 0.00000000e+00 0.00000000e+00 
2.00000000e+00 0.00000000e+00 0.00000000e+00 
2.00000000e+00 2.00000000e+00 0.00000000e+00 
0.00000000e+00 2.00000000e+00 0.00000000e+00 
0.00000000e+00 0.00000000e+00 2.00000000e+00 
2.00000000e+00 0.00000000e+00 2.00000000e+00 
2.00000000e+00 2.00000000e+00 2.00000000e+00 
0.00000000e+00 2.00000000e+00 2.00000000e+00 
1.00000000e+00 0.00000000e+00 0.00000000e+00 
2.00000000e+00 1.00000000e+00 0.00000000e+00 
1.00000000e+00 2.00000000e+00 0.00000000e+00 
0.00000000e+00 1.00000000e+00 0.00000000e+00 
0.00000000e+00 0.00000000e+00 1.00000000e+00 
2.00000000e+00 0.00000000e+00 1.00000000e+00 
2.00000000e+00 2.00000000e+00 1.00000000e+00 
0.00000000e+00 2.00000000e+00 1.00000000e+00 
1.00000000e+00 0.00000000e+00 2.00000000e+00 
2.00000000e+00 1.00000000e+00 2.00000000e+00 
1.00000000e+00 2.00000000e+00 2.00000000e+00 
0.00000000e+00 1.00000000e+00 2.00000000e+00 
1.00000000e+00 1.00000000e+00 0.00000000e+00 
1.00000000e+00 0.00000000e+00 1.00000000e+00 
2.00000000e+00 1.00000000e+00 1.00000000e+00 
1.00000000e+00 2.00000000e+00 1.00000000e+00 
0.00000000e+00 1.00000000e+00 1.00000000e+00 
1.00000000e+00 1.00000000e+00 2.00000000e+00 
1.00000000e+00 1.00000000e+00 1.00000000e+00 
BOUNDARY 1 27  float
-1.00000000e+00
-1.00000000e+00
-1.00000000e+00
-1.00000000e+00
-1.00000000e+00
-1.00000000e+00
-1.00000000e+00
-1.00000000e+00
-1.00000000e+00
-1.00000000e+00
-1.00000000e+00
-1.00000000e+00
-1.00000000e+00
-1.00000000e+00
-1.00000000e+00
-1.00000000e+00
-1.00000000e+00
-1.00000000e+00
-1.00000000e+00
-1.00000000e+00
-1.00000000e+00
-1.00000000e+00
-1.00000000e+00
-1.00000000e+00
-1.00000000e+00
-1.00000000e+00
-1.00000000e+00
CELL_DATA 1
FIELD FieldData 1
DETERMINANT 3 1  float
0.00000000e+00 7.58000016e-01 3.03200006e+00 
