# vtk DataFile Version 4.0
vtk output
ASCII
DATASET UNSTRUCTURED_GRID
POINTS 27 float
0.0e+00 0.0e+00 0.0e+00
1.0e+00 0.0e+00 0.0e+00
1.0e+00 1.0e+00 0.0e+00
0.0e+00 1.0e+00 0.0e+00
0.0e+00 0.0e+00 1.0e+00
1.0e+00 0.0e+00 1.0e+00
1.0e+00 1.0e+00 1.0e+00
0.0e+00 1.0e+00 1.0e+00
5.0e-01 0.0e+00 0.0e+00
1.0e+00 5.0e-01 0.0e+00
5.0e-01 1.0e+00 0.0e+00
0.0e+00 5.0e-01 0.0e+00
0.0e+00 0.0e+00 5.0e-01
1.0e+00 0.0e+00 5.0e-01
1.0e+00 1.0e+00 5.0e-01
0.0e+00 1.0e+00 5.0e-01
5.0e-01 0.0e+00 1.0e+00
1.0e+00 5.0e-01 1.0e+00
5.0e-01 1.0e+00 1.0e+00
0.0e+00 5.0e-01 1.0e+00
5.0e-01 5.0e-01 0.0e+00
5.0e-01 0.0e+00 5.0e-01
1.0e+00 5.0e-01 5.0e-01
5.0e-01 1.0e+00 5.0e-01
0.0e+00 5.0e-01 5.0e-01
5.0e-01 5.0e-01 1.0e+00
5.0e-01 5.0e-01 5.0e-01

CELLS 1 28
27 0 1 2 3 4 5 6 7 8 9 10 11 16 17 18 19 12 13 14 15 24 22 21 23 20 25 26

CELL_TYPES 1
29
POINT_DATA 27
FIELD FieldData 4
PRESSURE 1 27  float
0.0e+00
6.94799995e+00
6.94799995e+00
0.0e+00
0.0e+00
6.94799995e+00
6.94799995e+00
0.0e+00
3.47399998e+00
6.94799995e+00
3.47399998e+00
0.0e+00
0.0e+00
6.94799995e+00
6.94799995e+00
0.0e+00
3.47399998e+00
6.94799995e+00
3.47399998e+00
0.0e+00
3.47399998e+00
3.47399998e+00
6.94799995e+00
3.47399998e+00
0.0e+00
3.47399998e+00
3.47399998e+00
DISPLACEMENT 3 27  float
0.0e+00 0.0e+00 0.0e+00
1.15799999e+00 0.0e+00 0.0e+00
1.15799999e+00 1.0e+00 0.0e+00
0.0e+00 1.0e+00 0.0e+00
0.0e+00 0.0e+00 6.0e+00
1.15799999e+00 0.0e+00 6.0e+00
1.15799999e+00 1.0e+00 6.0e+00
0.0e+00 1.0e+00 6.0e+00
5.78999996e-01 0.0e+00 0.0e+00
1.15799999e+00 5.0e-01 0.0e+00
5.78999996e-01 1.0e+00 0.0e+00
0.0e+00 5.0e-01 0.0e+00
0.0e+00 0.0e+00 3.0e+00
1.15799999e+00 0.0e+00 3.0e+00
1.15799999e+00 1.0e+00 3.0e+00
0.0e+00 1.0e+00 3.0e+00
5.78999996e-01 0.0e+00 6.0e+00
1.15799999e+00 5.0e-01 6.0e+00
5.78999996e-01 1.0e+00 6.0e+00
0.0e+00 5.0e-01 6.0e+00
5.78999996e-01 5.0e-01 0.0e+00
5.78999996e-01 0.0e+00 3.0e+00
1.15799999e+00 5.0e-01 3.0e+00
5.78999996e-01 1.0e+00 3.0e+00
0.0e+00 5.0e-01 3.0e+00
5.78999996e-01 5.0e-01 6.0e+00
5.78999996e-01 5.0e-01 3.0e+00
VELOCITY 3 27  float
0.0e+00 0.0e+00 0.0e+00
2.0e+00 0.0e+00 0.0e+00
2.0e+00 2.0e+00 0.0e+00
0.0e+00 2.0e+00 0.0e+00
0.0e+00 0.0e+00 2.0e+00
2.0e+00 0.0e+00 2.0e+00
2.0e+00 2.0e+00 2.0e+00
0.0e+00 2.0e+00 2.0e+00
1.0e+00 0.0e+00 0.0e+00
2.0e+00 1.0e+00 0.0e+00
1.0e+00 2.0e+00 0.0e+00
0.0e+00 1.0e+00 0.0e+00
0.0e+00 0.0e+00 1.0e+00
2.0e+00 0.0e+00 1.0e+00
2.0e+00 2.0e+00 1.0e+00
0.0e+00 2.0e+00 1.0e+00
1.0e+00 0.0e+00 2.0e+00
2.0e+00 1.0e+00 2.0e+00
1.0e+00 2.0e+00 2.0e+00
0.0e+00 1.0e+00 2.0e+00
1.0e+00 1.0e+00 0.0e+00
1.0e+00 0.0e+00 1.0e+00
2.0e+00 1.0e+00 1.0e+00
1.0e+00 2.0e+00 1.0e+00
0.0e+00 1.0e+00 1.0e+00
1.0e+00 1.0e+00 2.0e+00
1.0e+00 1.0e+00 1.0e+00
BOUNDARY 1 27  float
-1.0e+00
-1.0e+00
-1.0e+00
-1.0e+00
-1.0e+00
-1.0e+00
-1.0e+00
-1.0e+00
-1.0e+00
-1.0e+00
-1.0e+00
-1.0e+00
-1.0e+00
-1.0e+00
-1.0e+00
-1.0e+00
-1.0e+00
-1.0e+00
-1.0e+00
-1.0e+00
-1.0e+00
-1.0e+00
-1.0e+00
-1.0e+00
-1.0e+00
-1.0e+00
-1.0e+00
CELL_DATA 1
FIELD FieldData 1
DETERMINANT 3 1  float
0.0e+00 1.15799999e+00 6.94799995e+00
