# vtk DataFile Version 4.0
vtk output
ASCII
DATASET UNSTRUCTURED_GRID
POINTS 15 float
0.00000000e+00 1.00000000e+00 1.00000000e+00 
0.00000000e+00 1.00000000e+00 0.00000000e+00 
0.00000000e+00 0.00000000e+00 1.00000000e+00 
1.00000000e+00 1.00000000e+00 1.00000000e+00 
0.00000000e+00 0.00000000e+00 0.00000000e+00 
1.00000000e+00 1.00000000e+00 0.00000000e+00 
1.00000000e+00 0.00000000e+00 1.00000000e+00 
1.00000000e+00 0.00000000e+00 0.00000000e+00 
2.00000000e+00 1.00000000e+00 1.00000000e+00 
2.00000000e+00 1.00000000e+00 0.00000000e+00 
2.00000000e+00 0.00000000e+00 1.00000000e+00 
2.00000000e+00 0.00000000e+00 0.00000000e+00 
0.00000000e+00 0.00000000e+00 2.00000000e+00 
1.00000000e+00 0.00000000e+00 2.00000000e+00 
1.00000000e+00 1.00000000e+00 2.00000000e+00 

CELLS 13 67
4 11 9 7 8
4 3 5 8 6
4 10 6 8 7
4 4 2 7 5
4 3 5 6 2
4 1 2 4 5
4 9 8 5 7
4 6 7 2 5
4 6 7 5 8
4 3 0 5 2
4 8 11 10 7
4 2 1 0 5
6 2 6 3 12 13 14

CELL_TYPES 13
10
10
10
10
10
10
10
10
10
10
10
10
13
POINT_DATA 15
FIELD FieldData 4
PRESSURE 1 15  float
0.00000000e+00
0.00000000e+00
0.00000000e+00
3.03200006e+00
0.00000000e+00
3.03200006e+00
3.03200006e+00
3.03200006e+00
6.06400013e+00
6.06400013e+00
6.06400013e+00
6.06400013e+00
0.00000000e+00
3.03200006e+00
3.03200006e+00
DISPLACEMENT 3 15  float
0.00000000e+00 1.00000000e+00 4.00000000e+00 
0.00000000e+00 1.00000000e+00 0.00000000e+00 
0.00000000e+00 0.00000000e+00 4.00000000e+00 
7.58000000e-01 1.00000000e+00 4.00000000e+00 
0.00000000e+00 0.00000000e+00 0.00000000e+00 
7.58000000e-01 1.00000000e+00 0.00000000e+00 
7.58000000e-01 0.00000000e+00 4.00000000e+00 
7.58000000e-01 0.00000000e+00 0.00000000e+00 
1.51600000e+00 1.00000000e+00 4.00000000e+00 
1.51600000e+00 1.00000000e+00 0.00000000e+00 
1.51600000e+00 0.00000000e+00 4.00000000e+00 
1.51600000e+00 0.00000000e+00 0.00000000e+00 
0.00000000e+00 0.00000000e+00 8.00000000e+00 
7.58000000e-01 0.00000000e+00 8.00000000e+00 
7.58000000e-01 1.00000000e+00 8.00000000e+00 
VELOCITY 3 15  float
0.00000000e+00 2.00000000e+00 2.00000000e+00 
0.00000000e+00 2.00000000e+00 0.00000000e+00 
0.00000000e+00 0.00000000e+00 2.00000000e+00 
2.00000000e+00 2.00000000e+00 2.00000000e+00 
0.00000000e+00 0.00000000e+00 0.00000000e+00 
2.00000000e+00 2.00000000e+00 0.00000000e+00 
2.00000000e+00 0.00000000e+00 2.00000000e+00 
2.00000000e+00 0.00000000e+00 0.00000000e+00 
4.00000000e+00 2.00000000e+00 2.00000000e+00 
4.00000000e+00 2.00000000e+00 0.00000000e+00 
4.00000000e+00 0.00000000e+00 2.00000000e+00 
4.00000000e+00 0.00000000e+00 0.00000000e+00 
0.00000000e+00 0.00000000e+00 4.00000000e+00 
2.00000000e+00 0.00000000e+00 4.00000000e+00 
2.00000000e+00 2.00000000e+00 4.00000000e+00 
BOUNDARY 1 15  float
1.00000000e+00
1.00000000e+00
-1.00000000e+00
-1.00000000e+00
1.00000000e+00
-1.00000000e+00
-1.00000000e+00
-1.00000000e+00
-1.00000000e+00
-1.00000000e+00
-1.00000000e+00
-1.00000000e+00
-1.00000000e+00
-1.00000000e+00
-1.00000000e+00
CELL_DATA 13
FIELD FieldData 1
DETERMINANT 3 13  float
0.00000000e+00 7.58000000e-01 3.03200000e+00 
1.89000000e-01 7.58000000e-01 3.03200000e+00 
3.78000000e-01 7.58000000e-01 3.03200000e+00 
5.67000000e-01 7.58000000e-01 3.03200000e+00 
7.56000000e-01 7.58000000e-01 3.03200000e+00 
9.45000000e-01 7.58000000e-01 3.03200000e+00 
1.13400000e+00 7.58000000e-01 3.03200000e+00 
1.32300000e+00 7.58000000e-01 3.03200000e+00 
1.51200000e+00 7.58000000e-01 3.03200000e+00 
1.70100000e+00 7.58000000e-01 3.03200000e+00 
1.89000000e+00 7.58000000e-01 3.03200000e+00 
2.07900000e+00 7.58000000e-01 3.03200000e+00 
2.26800000e+00 7.58000000e-01 3.03200000e+00 
