# vtk DataFile Version 4.0
vtk output
ASCII
DATASET UNSTRUCTURED_GRID
POINTS 9 float
-5.0000000e-01 -4.5000000e-01 1.0000000e-01 
7.0000000e-01 -5.0000000e-01 2.0000000e-01 
5.5000000e-01 6.0000000e-01 1.5000000e-01 
-4.8000000e-01 6.5000000e-01 0.0000000e+00 
2.0000000e-02 -1.0000000e-02 -1.5000000e-01 
-3.0000000e-02 -5.0000000e-01 0.0000000e+00 
5.1000000e-01 2.0000000e-02 3.0000000e-02 
-1.0000000e-02 5.2000000e-01 -5.0000000e-02 
-4.9000000e-01 -0.0000000e+00 0.0000000e+00 
POINT_DATA 9
FIELD FieldData 4
1_EigenFrequency_[Hz]_55.0004_DISPLACEMENT 3 9  float
-9.6394683e-01 -8.0847153e-01 -6.9618382e-01 
-9.8446351e-01 -8.2567907e-01 -7.1100142e-01 
-1.0003783e+00 -8.3902696e-01 -7.2249543e-01 
-1.0135624e+00 -8.5008461e-01 -7.3201730e-01 
-1.0249125e+00 -8.5960407e-01 -7.4021461e-01 
-1.0349344e+00 -8.6800948e-01 -7.4745261e-01 
-1.0439438e+00 -8.7556573e-01 -7.5395938e-01 
-1.0521524e+00 -8.8245037e-01 -7.5988782e-01 
-1.0597096e+00 -8.8878869e-01 -7.6534582e-01 
2_EigenFrequency_[Hz]_169.026_DISPLACEMENT 3 9  float
-1.1499927e+00 -9.6451001e-01 -8.3055028e-01 
-1.3975886e+00 -1.1721711e+00 -1.0093695e+00 
-1.6678103e+00 -1.3988086e+00 -1.2045297e+00 
-1.9562083e+00 -1.6406908e+00 -1.4128171e+00 
-2.2599705e+00 -1.8954591e+00 -1.6322009e+00 
-2.5771349e+00 -2.1614680e+00 -1.8612641e+00 
-2.9062434e+00 -2.4374945e+00 -2.0989536e+00 
-3.2461636e+00 -2.7225889e+00 -2.3444515e+00 
-3.5959873e+00 -3.0159894e+00 -2.5971020e+00 
3_EigenFrequency_[Hz]_369.884_DISPLACEMENT 3 9  float
-1.5220844e+00 -1.2765870e+00 -1.0992832e+00 
-2.6369639e+00 -2.2116471e+00 -1.9044739e+00 
-4.3375384e+00 -3.6379354e+00 -3.1326666e+00 
-6.6694374e+00 -5.5937217e+00 -4.8168159e+00 
-9.6703180e+00 -8.1105893e+00 -6.9841186e+00 
-1.3372539e+01 -1.1215677e+01 -9.6579445e+00 
-1.7804640e+01 -1.4932924e+01 -1.2858907e+01 
-2.2992265e+01 -1.9283835e+01 -1.6605525e+01 
-2.8958765e+01 -2.4287996e+01 -2.0914663e+01 
4_EigenFrequency_[Hz]_675.296_DISPLACEMENT 3 9  float
-2.2662679e+00 -1.9007409e+00 -1.6367491e+00 
-6.3550898e+00 -5.3300753e+00 -4.5897871e+00 
-1.5016451e+01 -1.2594442e+01 -1.0845214e+01 
-3.0235583e+01 -2.5358876e+01 -2.1836810e+01 
-5.4132403e+01 -4.5401371e+01 -3.9095625e+01 
-8.8940364e+01 -7.4595144e+01 -6.4234707e+01 
-1.3699182e+02 -1.1489636e+02 -9.8938534e+01 
-2.0070718e+02 -1.6833505e+02 -1.4495518e+02 
-2.8258654e+02 -2.3700806e+02 -2.0409028e+02 
