# vtk DataFile Version 4.0
vtk output
ASCII
DATASET UNSTRUCTURED_GRID
POINTS 9 float
-5.0000000e-01 -4.5000000e-01 1.0000000e-01 
7.0000000e-01 -5.0000000e-01 2.0000000e-01 
5.5000000e-01 6.0000000e-01 1.5000000e-01 
-4.8000000e-01 6.5000000e-01 0.0000000e+00 
2.0000000e-02 -1.0000000e-02 -1.5000000e-01 
-3.0000000e-02 -5.0000000e-01 0.0000000e+00 
5.1000000e-01 2.0000000e-02 3.0000000e-02 
-1.0000000e-02 5.2000000e-01 -5.0000000e-02 
-4.9000000e-01 -0.0000000e+00 0.0000000e+00 
POINT_DATA 9
FIELD FieldData 4
1_EigenFrequency_[Hz]_55.0004_DISPLACEMENT 3 9  float
3.6819493e-01 3.0880865e-01 2.6591856e-01 
3.7603160e-01 3.1538134e-01 2.7157838e-01 
3.8211051e-01 3.2047978e-01 2.7596870e-01 
3.8714639e-01 3.2470343e-01 2.7960573e-01 
3.9148176e-01 3.2833954e-01 2.8273682e-01 
3.9530976e-01 3.3155012e-01 2.8550149e-01 
3.9875103e-01 3.3443635e-01 2.8798686e-01 
4.0188644e-01 3.3706605e-01 2.9025132e-01 
4.0477305e-01 3.3948707e-01 2.9233609e-01 
2_EigenFrequency_[Hz]_169.026_DISPLACEMENT 3 9  float
4.3925813e-01 3.6841004e-01 3.1724198e-01 
5.3383134e-01 4.4772951e-01 3.8554486e-01 
6.3704685e-01 5.3429736e-01 4.6008939e-01 
7.4720506e-01 6.2668812e-01 5.3964810e-01 
8.6323191e-01 7.2400095e-01 6.2344527e-01 
9.8437794e-01 8.2560730e-01 7.1093962e-01 
1.1100862e+00 9.3104004e-01 8.0172892e-01 
1.2399242e+00 1.0399364e+00 8.9550080e-01 
1.3735449e+00 1.1520054e+00 9.9200468e-01 
3_EigenFrequency_[Hz]_369.884_DISPLACEMENT 3 9  float
5.8138452e-01 4.8761283e-01 4.1988882e-01 
1.0072306e+00 8.4477404e-01 7.2744431e-01 
1.6567922e+00 1.3895677e+00 1.1965722e+00 
2.5474984e+00 2.1366116e+00 1.8398600e+00 
3.6937328e+00 3.0979695e+00 2.6676959e+00 
5.1078552e+00 4.2840076e+00 3.6890065e+00 
6.8007675e+00 5.7038695e+00 4.9116654e+00 
8.7822638e+00 7.3657696e+00 6.3427461e+00 
1.1061264e+01 9.2771890e+00 7.9886906e+00 
4_EigenFrequency_[Hz]_675.296_DISPLACEMENT 3 9  float
8.6563732e-01 7.2601840e-01 6.2518251e-01 
2.4274283e+00 2.0359076e+00 1.7531427e+00 
5.7357737e+00 4.8106489e+00 4.1425032e+00 
1.1548965e+01 9.6862288e+00 8.3409193e+00 
2.0676738e+01 1.7341780e+01 1.4933200e+01 
3.3972196e+01 2.8492810e+01 2.4535475e+01 
5.2326218e+01 4.3886505e+01 3.7791157e+01 
7.6663320e+01 6.4298269e+01 5.5367954e+01 
1.0793845e+02 9.0529025e+01 7.7955549e+01 
