# vtk DataFile Version 4.0
vtk output
ASCII
DATASET UNSTRUCTURED_GRID
POINTS 9 float
-5.0000000e-01 -4.4999999e-01 1.0000000e-01 
6.9999999e-01 -5.0000000e-01 2.0000000e-01 
5.5000001e-01 6.0000002e-01 1.5000001e-01 
-4.7999999e-01 6.4999998e-01 0.0000000e+00 
2.0000000e-02 -9.9999998e-03 -1.5000001e-01 
-2.9999999e-02 -5.0000000e-01 0.0000000e+00 
5.0999999e-01 2.0000000e-02 2.9999999e-02 
-9.9999998e-03 5.1999998e-01 -5.0000001e-02 
-4.9000001e-01 -0.0000000e+00 0.0000000e+00 
POINT_DATA 9
FIELD FieldData 4
1_EigenFrequency_[Hz]_55.0004_DISPLACEMENT 3 9  float
3.6819494e-01 3.0880865e-01 2.6591855e-01 
3.7603161e-01 3.1538135e-01 2.7157837e-01 
3.8211051e-01 3.2047978e-01 2.7596870e-01 
3.8714638e-01 3.2470343e-01 2.7960572e-01 
3.9148176e-01 3.2833955e-01 2.8273684e-01 
3.9530975e-01 3.3155012e-01 2.8550148e-01 
3.9875102e-01 3.3443636e-01 2.8798684e-01 
4.0188643e-01 3.3706605e-01 2.9025131e-01 
4.0477306e-01 3.3948708e-01 2.9233608e-01 
2_EigenFrequency_[Hz]_169.026_DISPLACEMENT 3 9  float
4.3925813e-01 3.6841005e-01 3.1724197e-01 
5.3383136e-01 4.4772953e-01 3.8554487e-01 
6.3704687e-01 5.3429735e-01 4.6008939e-01 
7.4720508e-01 6.2668812e-01 5.3964812e-01 
8.6323190e-01 7.2400093e-01 6.2344527e-01 
9.8437792e-01 8.2560730e-01 7.1093965e-01 
1.1100862e+00 9.3104005e-01 8.0172890e-01 
1.2399242e+00 1.0399364e+00 8.9550078e-01 
1.3735449e+00 1.1520054e+00 9.9200469e-01 
3_EigenFrequency_[Hz]_369.884_DISPLACEMENT 3 9  float
5.8138454e-01 4.8761281e-01 4.1988882e-01 
1.0072306e+00 8.4477401e-01 7.2744429e-01 
1.6567923e+00 1.3895676e+00 1.1965722e+00 
2.5474985e+00 2.1366115e+00 1.8398600e+00 
3.6937327e+00 3.0979695e+00 2.6676960e+00 
5.1078553e+00 4.2840075e+00 3.6890066e+00 
6.8007674e+00 5.7038693e+00 4.9116654e+00 
8.7822638e+00 7.3657699e+00 6.3427463e+00 
1.1061264e+01 9.2771893e+00 7.9886904e+00 
4_EigenFrequency_[Hz]_675.296_DISPLACEMENT 3 9  float
8.6563730e-01 7.2601843e-01 6.2518251e-01 
2.4274282e+00 2.0359075e+00 1.7531427e+00 
5.7357736e+00 4.8106489e+00 4.1425033e+00 
1.1548965e+01 9.6862288e+00 8.3409195e+00 
2.0676739e+01 1.7341780e+01 1.4933200e+01 
3.3972195e+01 2.8492809e+01 2.4535475e+01 
5.2326218e+01 4.3886505e+01 3.7791157e+01 
7.6663322e+01 6.4298271e+01 5.5367954e+01 
1.0793845e+02 9.0529022e+01 7.7955551e+01 
