# vtk DataFile Version 4.0
vtk output
ASCII
DATASET UNSTRUCTURED_GRID
POINTS 9 float
-5.0000000e-01 -4.5000000e-01 1.0000000e-01 
7.0000000e-01 -5.0000000e-01 2.0000000e-01 
5.5000000e-01 6.0000000e-01 1.5000000e-01 
-4.8000000e-01 6.5000000e-01 0.0000000e+00 
2.0000000e-02 -1.0000000e-02 -1.5000000e-01 
-3.0000000e-02 -5.0000000e-01 0.0000000e+00 
5.1000000e-01 2.0000000e-02 3.0000000e-02 
-1.0000000e-02 5.2000000e-01 -5.0000000e-02 
-4.9000000e-01 -0.0000000e+00 0.0000000e+00 
POINT_DATA 9
FIELD FieldData 4
1_EigenFrequency_[Hz]_55.0004_DISPLACEMENT 3 9  float
1.1915038e+00 9.9932577e-01 8.6053053e-01 
1.2168638e+00 1.0205955e+00 8.7884609e-01 
1.2365356e+00 1.0370944e+00 8.9305347e-01 
1.2528320e+00 1.0507624e+00 9.0482314e-01 
1.2668616e+00 1.0625291e+00 9.1495558e-01 
1.2792492e+00 1.0729187e+00 9.2390223e-01 
1.2903855e+00 1.0822588e+00 9.3194505e-01 
1.3005318e+00 1.0907686e+00 9.3927300e-01 
1.3098731e+00 1.0986032e+00 9.4601946e-01 
2_EigenFrequency_[Hz]_169.026_DISPLACEMENT 3 9  float
1.4214692e+00 1.1921999e+00 1.0266166e+00 
1.7275145e+00 1.4488831e+00 1.2476494e+00 
2.0615269e+00 1.7290226e+00 1.4888805e+00 
2.4180064e+00 2.0280053e+00 1.7463379e+00 
2.7934771e+00 2.3429163e+00 2.0175113e+00 
3.1855139e+00 2.6717214e+00 2.3006489e+00 
3.5923144e+00 3.0129088e+00 2.5944493e+00 
4.0124789e+00 3.3653049e+00 2.8979014e+00 
4.4448848e+00 3.7279679e+00 3.2101946e+00 
3_EigenFrequency_[Hz]_369.884_DISPLACEMENT 3 9  float
1.8813998e+00 1.5779483e+00 1.3587888e+00 
3.2594666e+00 2.7337462e+00 2.3540592e+00 
5.3614923e+00 4.4967354e+00 3.8721889e+00 
8.2438780e+00 6.9142203e+00 5.9539119e+00 
1.1953170e+01 1.0025240e+01 8.6328453e+00 
1.6529367e+01 1.3863340e+01 1.1937876e+01 
2.2007746e+01 1.8458109e+01 1.5894483e+01 
2.8420003e+01 2.3836131e+01 2.0525557e+01 
3.5795002e+01 3.0021614e+01 2.5851946e+01 
4_EigenFrequency_[Hz]_675.296_DISPLACEMENT 3 9  float
2.8012612e+00 2.3494449e+00 2.0231331e+00 
7.8553230e+00 6.5883354e+00 5.6732888e+00 
1.8561354e+01 1.5567587e+01 1.3405422e+01 
3.7373236e+01 3.1345295e+01 2.6991782e+01 
6.6911330e+01 5.6119180e+01 4.8324850e+01 
1.0993634e+02 9.2204669e+01 7.9398465e+01 
1.6933120e+02 1.4201971e+02 1.2229475e+02 
2.4808772e+02 2.0807357e+02 1.7917446e+02 
3.4929617e+02 2.9295808e+02 2.5226946e+02 
