# vtk DataFile Version 4.0
vtk output
ASCII
DATASET UNSTRUCTURED_GRID
POINTS 9 float
-5.0000000e-01 -4.4999999e-01 1.0000000e-01 
6.9999999e-01 -5.0000000e-01 2.0000000e-01 
5.5000001e-01 6.0000002e-01 1.5000001e-01 
-4.7999999e-01 6.4999998e-01 0.0000000e+00 
2.0000000e-02 -9.9999998e-03 -1.5000001e-01 
-2.9999999e-02 -5.0000000e-01 0.0000000e+00 
5.0999999e-01 2.0000000e-02 2.9999999e-02 
-9.9999998e-03 5.1999998e-01 -5.0000001e-02 
-4.9000001e-01 -0.0000000e+00 0.0000000e+00 
POINT_DATA 9
FIELD FieldData 4
1_EigenFrequency_[Hz]_55.0004_DISPLACEMENT 3 9  float
1.1915038e+00 9.9932575e-01 8.6053056e-01 
1.2168639e+00 1.0205954e+00 8.7884611e-01 
1.2365355e+00 1.0370944e+00 8.9305347e-01 
1.2528321e+00 1.0507624e+00 9.0482312e-01 
1.2668616e+00 1.0625291e+00 9.1495556e-01 
1.2792492e+00 1.0729188e+00 9.2390221e-01 
1.2903855e+00 1.0822588e+00 9.3194503e-01 
1.3005319e+00 1.0907687e+00 9.3927300e-01 
1.3098731e+00 1.0986032e+00 9.4601947e-01 
2_EigenFrequency_[Hz]_169.026_DISPLACEMENT 3 9  float
1.4214692e+00 1.1921999e+00 1.0266166e+00 
1.7275145e+00 1.4488832e+00 1.2476494e+00 
2.0615270e+00 1.7290226e+00 1.4888805e+00 
2.4180064e+00 2.0280054e+00 1.7463379e+00 
2.7934771e+00 2.3429163e+00 2.0175114e+00 
3.1855140e+00 2.6717215e+00 2.3006489e+00 
3.5923145e+00 3.0129089e+00 2.5944493e+00 
4.0124788e+00 3.3653049e+00 2.8979015e+00 
4.4448848e+00 3.7279680e+00 3.2101946e+00 
3_EigenFrequency_[Hz]_369.884_DISPLACEMENT 3 9  float
1.8813999e+00 1.5779482e+00 1.3587887e+00 
3.2594666e+00 2.7337463e+00 2.3540592e+00 
5.3614922e+00 4.4967356e+00 3.8721888e+00 
8.2438784e+00 6.9142203e+00 5.9539118e+00 
1.1953171e+01 1.0025240e+01 8.6328449e+00 
1.6529367e+01 1.3863339e+01 1.1937876e+01 
2.2007746e+01 1.8458109e+01 1.5894484e+01 
2.8420002e+01 2.3836132e+01 2.0525557e+01 
3.5795002e+01 3.0021614e+01 2.5851946e+01 
4_EigenFrequency_[Hz]_675.296_DISPLACEMENT 3 9  float
2.8012612e+00 2.3494449e+00 2.0231330e+00 
7.8553228e+00 6.5883355e+00 5.6732888e+00 
1.8561354e+01 1.5567587e+01 1.3405422e+01 
3.7373238e+01 3.1345295e+01 2.6991781e+01 
6.6911331e+01 5.6119179e+01 4.8324848e+01 
1.0993633e+02 9.2204666e+01 7.9398468e+01 
1.6933119e+02 1.4201971e+02 1.2229475e+02 
2.4808772e+02 2.0807356e+02 1.7917447e+02 
3.4929617e+02 2.9295807e+02 2.5226945e+02 
