# vtk DataFile Version 4.0
vtk output
ASCII
DATASET UNSTRUCTURED_GRID
POINTS 9 float
-5.0000000e-01 -4.4999999e-01 1.0000000e-01 
6.9999999e-01 -5.0000000e-01 2.0000000e-01 
5.5000001e-01 6.0000002e-01 1.5000001e-01 
-4.7999999e-01 6.4999998e-01 0.0000000e+00 
2.0000000e-02 -9.9999998e-03 -1.5000001e-01 
-2.9999999e-02 -5.0000000e-01 0.0000000e+00 
5.0999999e-01 2.0000000e-02 2.9999999e-02 
-9.9999998e-03 5.1999998e-01 -5.0000001e-02 
-4.9000001e-01 -0.0000000e+00 0.0000000e+00 
POINT_DATA 9
FIELD FieldData 4
1_EigenFrequency_[Hz]_55.0004_DISPLACEMENT 3 9  float
-9.6394682e-01 -8.0847156e-01 -6.9618380e-01 
-9.8446351e-01 -8.2567906e-01 -7.1100140e-01 
-1.0003783e+00 -8.3902693e-01 -7.2249544e-01 
-1.0135624e+00 -8.5008460e-01 -7.3201728e-01 
-1.0249126e+00 -8.5960406e-01 -7.4021459e-01 
-1.0349344e+00 -8.6800945e-01 -7.4745262e-01 
-1.0439438e+00 -8.7556571e-01 -7.5395936e-01 
-1.0521524e+00 -8.8245034e-01 -7.5988781e-01 
-1.0597095e+00 -8.8878870e-01 -7.6534581e-01 
2_EigenFrequency_[Hz]_169.026_DISPLACEMENT 3 9  float
-1.1499927e+00 -9.6451002e-01 -8.3055031e-01 
-1.3975886e+00 -1.1721711e+00 -1.0093695e+00 
-1.6678103e+00 -1.3988086e+00 -1.2045296e+00 
-1.9562082e+00 -1.6406908e+00 -1.4128171e+00 
-2.2599704e+00 -1.8954591e+00 -1.6322008e+00 
-2.5771348e+00 -2.1614680e+00 -1.8612641e+00 
-2.9062433e+00 -2.4374945e+00 -2.0989535e+00 
-3.2461636e+00 -2.7225888e+00 -2.3444514e+00 
-3.5959873e+00 -3.0159893e+00 -2.5971019e+00 
3_EigenFrequency_[Hz]_369.884_DISPLACEMENT 3 9  float
-1.5220845e+00 -1.2765870e+00 -1.0992832e+00 
-2.6369638e+00 -2.2116470e+00 -1.9044739e+00 
-4.3375382e+00 -3.6379354e+00 -3.1326666e+00 
-6.6694374e+00 -5.5937219e+00 -4.8168159e+00 
-9.6703176e+00 -8.1105890e+00 -6.9841185e+00 
-1.3372539e+01 -1.1215677e+01 -9.6579447e+00 
-1.7804640e+01 -1.4932924e+01 -1.2858907e+01 
-2.2992266e+01 -1.9283834e+01 -1.6605524e+01 
-2.8958765e+01 -2.4287996e+01 -2.0914663e+01 
4_EigenFrequency_[Hz]_675.296_DISPLACEMENT 3 9  float
-2.2662680e+00 -1.9007409e+00 -1.6367490e+00 
-6.3550897e+00 -5.3300753e+00 -4.5897870e+00 
-1.5016451e+01 -1.2594442e+01 -1.0845214e+01 
-3.0235584e+01 -2.5358877e+01 -2.1836811e+01 
-5.4132404e+01 -4.5401371e+01 -3.9095623e+01 
-8.8940361e+01 -7.4595146e+01 -6.4234711e+01 
-1.3699182e+02 -1.1489636e+02 -9.8938538e+01 
-2.0070718e+02 -1.6833505e+02 -1.4495518e+02 
-2.8258655e+02 -2.3700807e+02 -2.0409027e+02 
